diamond Si                              
   5.43100000000000     
     1.129665   -0.000000    0.000000
    -0.000000    1.129665   -0.000000
     0.000000   -0.000000    1.129665
   Si
     8
Direct
  0.000000  0.000000  0.000000
  0.000000  0.500000  0.500000
  0.500000  0.000000  0.500000
  0.500000  0.500000  0.000000
  0.250000  0.250000  0.250000
  0.750000  0.750000  0.250000
  0.750000  0.250000  0.750000
  0.250000  0.750000  0.750000
 
   56   56   56
 -31.645     -27.018     -14.189      4.0034      23.790      41.507      54.466      61.418      62.562      59.196    
  53.176      46.280      39.369      32.833      26.919      21.753      17.369      13.732      10.766      8.3750    
  6.4616      4.9395      3.7386      2.8046      2.0961      1.5803      1.2316      1.0306     0.96497      1.0306    
  1.2316      1.5803      2.0961      2.8046      3.7386      4.9395      6.4616      8.3750      10.766      13.732    
  17.369      21.753      26.919      32.833      39.369      46.280      53.176      59.196      62.562      61.418    
  54.466      41.507      23.790      4.0034     -14.189     -27.018     -27.018     -22.547     -10.164      7.3723    
  26.396      43.351      55.638      62.067      62.857      59.293      53.201      46.299      39.395      32.870    
  26.968      21.811      17.433      13.800      10.835      8.4447      6.5309      5.0082      3.8067      2.8721    
  2.1629      1.6467      1.2975      1.0963      1.0306      1.0963      1.2975      1.6467      2.1629      2.8721    
  3.8067      5.0082      6.5309      8.4447      10.835      13.800      17.433      21.811      26.968      32.870    
  39.395      46.299      53.201      59.293      62.857      62.067      55.638      43.351      26.396      7.3723    
 -10.164     -22.547     -14.189     -10.164     0.96417      16.652      33.531      48.352      58.769      63.751    
  63.575      59.491      53.227      46.322      39.450      32.968      27.106      21.981      17.624      14.004    
  11.045      8.6566      6.7426      5.2184      4.0150      3.0785      2.3676      1.8499      1.4996      1.2975    
  1.2316      1.2975      1.4996      1.8499      2.3676      3.0785      4.0150      5.2184      6.7426      8.6566    
  11.045      14.004      17.624      21.981      27.106      32.968      39.450      46.322      53.227      59.491    
  63.575      63.751      58.769      48.352      33.531      16.652     0.96417     -10.164      4.0034      7.3723    
  16.652      29.625      43.369      55.096      62.831      65.777      64.285      59.545      53.127      46.264    
  39.476      33.087      27.307      22.247      17.936      14.343      11.400      9.0185      7.1063      5.5812    
  4.3754      3.4360      2.7223      2.2020      1.8499      1.6467      1.5803      1.6467      1.8499      2.2020    
  2.7223      3.4360      4.3754      5.5812      7.1063      9.0185      11.400      14.343      17.936      22.247    
  27.307      33.087      39.476      46.264      53.127      59.545      64.285      65.777      62.831      55.096    
  43.369      29.625      16.652      7.3723      23.790      26.396      33.531      43.369      53.526      61.752    
  66.514      67.276      64.461      59.169      52.737      46.009      39.390      33.168      27.534      22.586    
  18.355      14.816      11.905      9.5409      7.6364      6.1130      4.9056      3.9630      3.2457      2.7223    
  2.3676      2.1629      2.0961      2.1629      2.3676      2.7223      3.2457      3.9630      4.9056      6.1130    
  7.6364      9.5409      11.905      14.816      18.355      22.586      27.534      33.168      39.390      46.009    
  52.737      59.169      64.461      67.276      66.514      61.752      53.526      43.369      33.531      26.396    
  41.507      43.351      48.352      55.096      61.752      66.632      68.645      67.505      63.683      58.154    
  51.908      45.445      39.109      33.151      27.740      22.968      18.866      15.417      12.564      10.235    
  8.3495      6.8343      5.6284      4.6839      3.9630      3.4360      3.0785      2.8721      2.8046      2.8721    
  3.0785      3.4360      3.9630      4.6839      5.6284      6.8343      8.3495      10.235      12.564      15.417    
  18.866      22.968      27.740      33.151      39.109      45.445      51.908      58.154      63.683      67.505    
  68.645      66.632      61.752      55.096      48.352      43.351      54.466      55.638      58.769      62.831    
  66.514      68.645      68.526      66.079      61.782      56.421      50.541      44.493      38.567      32.981    
  27.883      23.362      19.451      16.139      13.381      11.113      9.2646      7.7691      6.5715      5.6284    
  4.9056      4.3754      4.0150      3.8067      3.7386      3.8067      4.0150      4.3754      4.9056      5.6284    
  6.5715      7.7691      9.2646      11.113      13.381      16.139      19.451      23.362      27.883      32.981    
  38.567      44.493      50.541      56.421      61.782      66.079      68.526      68.645      66.514      62.831    
  58.769      55.638      61.418      62.067      63.751      65.777      67.276      67.505      66.079      63.060    
  58.879      53.962      48.615      43.124      37.731      32.624      27.935      23.747      20.096      16.979    
  14.362      12.191      10.405      8.9467      7.7691      6.8343      6.1130      5.5812      5.2184      5.0082    
  4.9395      5.0082      5.2184      5.5812      6.1130      6.8343      7.7691      8.9467      10.405      12.191    
  14.362      16.979      20.096      23.747      27.935      32.624      37.731      43.124      48.615      53.962    
  58.879      63.060      66.079      67.505      67.276      65.777      63.751      62.067      62.562      62.857    
  63.575      64.285      64.461      63.683      61.782      58.879      55.168      50.855      46.176      41.360    
  36.606      32.074      27.883      24.111      20.794      17.938      15.517      13.488      11.799      10.405    
  9.2646      8.3495      7.6364      7.1063      6.7426      6.5309      6.4616      6.5309      6.7426      7.1063    
  7.6364      8.3495      9.2646      10.405      11.799      13.488      15.517      17.938      20.794      24.111    
  27.883      32.074      36.606      41.360      46.176      50.855      55.168      58.879      61.782      63.683    
  64.461      64.285      63.575      62.857      59.196      59.293      59.491      59.545      59.169      58.154    
  56.421      53.962      50.855      47.251      43.328      39.266      35.230      31.353      27.740      24.461    
  21.556      19.031      16.869      15.035      13.488      12.191      11.113      10.235      9.5409      9.0185    
  8.6566      8.4447      8.3750      8.4447      8.6566      9.0185      9.5409      10.235      11.113      12.191    
  13.488      15.035      16.869      19.031      21.556      24.461      27.740      31.353      35.230      39.266    
  43.328      47.251      50.855      53.962      56.421      58.154      59.169      59.545      59.491      59.293    
  53.176      53.201      53.227      53.127      52.737      51.908      50.541      48.615      46.176      43.328    
  40.202      36.939      33.669      30.504      27.534      24.821      22.400      20.280      18.445      16.869    
  15.517      14.362      13.381      12.564      11.905      11.400      11.045      10.835      10.766      10.835    
  11.045      11.400      11.905      12.564      13.381      14.362      15.517      16.869      18.445      20.280    
  22.400      24.821      27.534      30.504      33.669      36.939      40.202      43.328      46.176      48.615    
  50.541      51.908      52.737      53.127      53.227      53.201      46.280      46.299      46.322      46.264    
  46.009      45.445      44.493      43.124      41.360      39.266      36.939      34.482      32.000      29.584    
  27.307      25.222      23.355      21.712      20.280      19.031      17.938      16.979      16.139      15.417    
  14.816      14.343      14.004      13.800      13.732      13.800      14.004      14.343      14.816      15.417    
  16.139      16.979      17.938      19.031      20.280      21.712      23.355      25.222      27.307      29.584    
  32.000      34.482      36.939      39.266      41.360      43.124      44.493      45.445      46.009      46.264    
  46.322      46.299      39.369      39.395      39.450      39.476      39.390      39.109      38.567      37.731    
  36.606      35.230      33.669      32.000      30.305      28.654      27.106      25.698      24.448      23.355    
  22.400      21.556      20.794      20.096      19.451      18.866      18.355      17.936      17.624      17.433    
  17.369      17.433      17.624      17.936      18.355      18.866      19.451      20.096      20.794      21.556    
  22.400      23.355      24.448      25.698      27.106      28.654      30.305      32.000      33.669      35.230    
  36.606      37.731      38.567      39.109      39.390      39.476      39.450      39.395      32.833      32.870    
  32.968      33.087      33.168      33.151      32.981      32.624      32.074      31.353      30.504      29.584    
  28.654      27.769      26.968      26.276      25.698      25.222      24.821      24.461      24.111      23.747    
  23.362      22.968      22.586      22.247      21.981      21.811      21.753      21.811      21.981      22.247    
  22.586      22.968      23.362      23.747      24.111      24.461      24.821      25.222      25.698      26.276    
  26.968      27.769      28.654      29.584      30.504      31.353      32.074      32.624      32.981      33.151    
  33.168      33.087      32.968      32.870      26.919      26.968      27.106      27.307      27.534      27.740    
  27.883      27.935      27.883      27.740      27.534      27.307      27.106      26.968      26.919      26.968    
  27.106      27.307      27.534      27.740      27.883      27.935      27.883      27.740      27.534      27.307    
  27.106      26.968      26.919      26.968      27.106      27.307      27.534      27.740      27.883      27.935    
  27.883      27.740      27.534      27.307      27.106      26.968      26.919      26.968      27.106      27.307    
  27.534      27.740      27.883      27.935      27.883      27.740      27.534      27.307      27.106      26.968    
  21.753      21.811      21.981      22.247      22.586      22.968      23.362      23.747      24.111      24.461    
  24.821      25.222      25.698      26.276      26.968      27.769      28.654      29.584      30.504      31.353    
  32.074      32.624      32.981      33.151      33.168      33.087      32.968      32.870      32.833      32.870    
  32.968      33.087      33.168      33.151      32.981      32.624      32.074      31.353      30.504      29.584    
  28.654      27.769      26.968      26.276      25.698      25.222      24.821      24.461      24.111      23.747    
  23.362      22.968      22.586      22.247      21.981      21.811      17.369      17.433      17.624      17.936    
  18.355      18.866      19.451      20.096      20.794      21.556      22.400      23.355      24.448      25.698    
  27.106      28.654      30.305      32.000      33.669      35.230      36.606      37.731      38.567      39.109    
  39.390      39.476      39.450      39.395      39.369      39.395      39.450      39.476      39.390      39.109    
  38.567      37.731      36.606      35.230      33.669      32.000      30.305      28.654      27.106      25.698    
  24.448      23.355      22.400      21.556      20.794      20.096      19.451      18.866      18.355      17.936    
  17.624      17.433      13.732      13.800      14.004      14.343      14.816      15.417      16.139      16.979    
  17.938      19.031      20.280      21.712      23.355      25.222      27.307      29.584      32.000      34.482    
  36.939      39.266      41.360      43.124      44.493      45.445      46.009      46.264      46.322      46.299    
  46.280      46.299      46.322      46.264      46.009      45.445      44.493      43.124      41.360      39.266    
  36.939      34.482      32.000      29.584      27.307      25.222      23.355      21.712      20.280      19.031    
  17.938      16.979      16.139      15.417      14.816      14.343      14.004      13.800      10.766      10.835    
  11.045      11.400      11.905      12.564      13.381      14.362      15.517      16.869      18.445      20.280    
  22.400      24.821      27.534      30.504      33.669      36.939      40.202      43.328      46.176      48.615    
  50.541      51.908      52.737      53.127      53.227      53.201      53.176      53.201      53.227      53.127    
  52.737      51.908      50.541      48.615      46.176      43.328      40.202      36.939      33.669      30.504    
  27.534      24.821      22.400      20.280      18.445      16.869      15.517      14.362      13.381      12.564    
  11.905      11.400      11.045      10.835      8.3750      8.4447      8.6566      9.0185      9.5409      10.235    
  11.113      12.191      13.488      15.035      16.869      19.031      21.556      24.461      27.740      31.353    
  35.230      39.266      43.328      47.251      50.855      53.962      56.421      58.154      59.169      59.545    
  59.491      59.293      59.196      59.293      59.491      59.545      59.169      58.154      56.421      53.962    
  50.855      47.251      43.328      39.266      35.230      31.353      27.740      24.461      21.556      19.031    
  16.869      15.035      13.488      12.191      11.113      10.235      9.5409      9.0185      8.6566      8.4447    
  6.4616      6.5309      6.7426      7.1063      7.6364      8.3495      9.2646      10.405      11.799      13.488    
  15.517      17.938      20.794      24.111      27.883      32.074      36.606      41.360      46.176      50.855    
  55.168      58.879      61.782      63.683      64.461      64.285      63.575      62.857      62.562      62.857    
  63.575      64.285      64.461      63.683      61.782      58.879      55.168      50.855      46.176      41.360    
  36.606      32.074      27.883      24.111      20.794      17.938      15.517      13.488      11.799      10.405    
  9.2646      8.3495      7.6364      7.1063      6.7426      6.5309      4.9395      5.0082      5.2184      5.5812    
  6.1130      6.8343      7.7691      8.9467      10.405      12.191      14.362      16.979      20.096      23.747    
  27.935      32.624      37.731      43.124      48.615      53.962      58.879      63.060      66.079      67.505    
  67.276      65.777      63.751      62.067      61.418      62.067      63.751      65.777      67.276      67.505    
  66.079      63.060      58.879      53.962      48.615      43.124      37.731      32.624      27.935      23.747    
  20.096      16.979      14.362      12.191      10.405      8.9467      7.7691      6.8343      6.1130      5.5812    
  5.2184      5.0082      3.7386      3.8067      4.0150      4.3754      4.9056      5.6284      6.5715      7.7691    
  9.2646      11.113      13.381      16.139      19.451      23.362      27.883      32.981      38.567      44.493    
  50.541      56.421      61.782      66.079      68.526      68.645      66.514      62.831      58.769      55.638    
  54.466      55.638      58.769      62.831      66.514      68.645      68.526      66.079      61.782      56.421    
  50.541      44.493      38.567      32.981      27.883      23.362      19.451      16.139      13.381      11.113    
  9.2646      7.7691      6.5715      5.6284      4.9056      4.3754      4.0150      3.8067      2.8046      2.8721    
  3.0785      3.4360      3.9630      4.6839      5.6284      6.8343      8.3495      10.235      12.564      15.417    
  18.866      22.968      27.740      33.151      39.109      45.445      51.908      58.154      63.683      67.505    
  68.645      66.632      61.752      55.096      48.352      43.351      41.507      43.351      48.352      55.096    
  61.752      66.632      68.645      67.505      63.683      58.154      51.908      45.445      39.109      33.151    
  27.740      22.968      18.866      15.417      12.564      10.235      8.3495      6.8343      5.6284      4.6839    
  3.9630      3.4360      3.0785      2.8721      2.0961      2.1629      2.3676      2.7223      3.2457      3.9630    
  4.9056      6.1130      7.6364      9.5409      11.905      14.816      18.355      22.586      27.534      33.168    
  39.390      46.009      52.737      59.169      64.461      67.276      66.514      61.752      53.526      43.369    
  33.531      26.396      23.790      26.396      33.531      43.369      53.526      61.752      66.514      67.276    
  64.461      59.169      52.737      46.009      39.390      33.168      27.534      22.586      18.355      14.816    
  11.905      9.5409      7.6364      6.1130      4.9056      3.9630      3.2457      2.7223      2.3676      2.1629    
  1.5803      1.6467      1.8499      2.2020      2.7223      3.4360      4.3754      5.5812      7.1063      9.0185    
  11.400      14.343      17.936      22.247      27.307      33.087      39.476      46.264      53.127      59.545    
  64.285      65.777      62.831      55.096      43.369      29.625      16.652      7.3723      4.0034      7.3723    
  16.652      29.625      43.369      55.096      62.831      65.777      64.285      59.545      53.127      46.264    
  39.476      33.087      27.307      22.247      17.936      14.343      11.400      9.0185      7.1063      5.5812    
  4.3754      3.4360      2.7223      2.2020      1.8499      1.6467      1.2316      1.2975      1.4996      1.8499    
  2.3676      3.0785      4.0150      5.2184      6.7426      8.6566      11.045      14.004      17.624      21.981    
  27.106      32.968      39.450      46.322      53.227      59.491      63.575      63.751      58.769      48.352    
  33.531      16.652     0.96417     -10.164     -14.189     -10.164     0.96417      16.652      33.531      48.352    
  58.769      63.751      63.575      59.491      53.227      46.322      39.450      32.968      27.106      21.981    
  17.624      14.004      11.045      8.6566      6.7426      5.2184      4.0150      3.0785      2.3676      1.8499    
  1.4996      1.2975      1.0306      1.0963      1.2975      1.6467      2.1629      2.8721      3.8067      5.0082    
  6.5309      8.4447      10.835      13.800      17.433      21.811      26.968      32.870      39.395      46.299    
  53.201      59.293      62.857      62.067      55.638      43.351      26.396      7.3723     -10.164     -22.547    
 -27.018     -22.547     -10.164      7.3723      26.396      43.351      55.638      62.067      62.857      59.293    
  53.201      46.299      39.395      32.870      26.968      21.811      17.433      13.800      10.835      8.4447    
  6.5309      5.0082      3.8067      2.8721      2.1629      1.6467      1.2975      1.0963     0.96497      1.0306    
  1.2316      1.5803      2.0961      2.8046      3.7386      4.9395      6.4616      8.3750      10.766      13.732    
  17.369      21.753      26.919      32.833      39.369      46.280      53.176      59.196      62.562      61.418    
  54.466      41.507      23.790      4.0034     -14.189     -27.018     -31.645     -27.018     -14.189      4.0034    
  23.790      41.507      54.466      61.418      62.562      59.196      53.176      46.280      39.369      32.833    
  26.919      21.753      17.369      13.732      10.766      8.3750      6.4616      4.9395      3.7386      2.8046    
  2.0961      1.5803      1.2316      1.0306      1.0306      1.0963      1.2975      1.6467      2.1629      2.8721    
  3.8067      5.0082      6.5309      8.4447      10.835      13.800      17.433      21.811      26.968      32.870    
  39.395      46.299      53.201      59.293      62.857      62.067      55.638      43.351      26.396      7.3723    
 -10.164     -22.547     -27.018     -22.547     -10.164      7.3723      26.396      43.351      55.638      62.067    
  62.857      59.293      53.201      46.299      39.395      32.870      26.968      21.811      17.433      13.800    
  10.835      8.4447      6.5309      5.0082      3.8067      2.8721      2.1629      1.6467      1.2975      1.0963    
  1.2316      1.2975      1.4996      1.8499      2.3676      3.0785      4.0150      5.2184      6.7426      8.6566    
  11.045      14.004      17.624      21.981      27.106      32.968      39.450      46.322      53.227      59.491    
  63.575      63.751      58.769      48.352      33.531      16.652     0.96417     -10.164     -14.189     -10.164    
 0.96417      16.652      33.531      48.352      58.769      63.751      63.575      59.491      53.227      46.322    
  39.450      32.968      27.106      21.981      17.624      14.004      11.045      8.6566      6.7426      5.2184    
  4.0150      3.0785      2.3676      1.8499      1.4996      1.2975      1.5803      1.6467      1.8499      2.2020    
  2.7223      3.4360      4.3754      5.5812      7.1063      9.0185      11.400      14.343      17.936      22.247    
  27.307      33.087      39.476      46.264      53.127      59.545      64.285      65.777      62.831      55.096    
  43.369      29.625      16.652      7.3723      4.0034      7.3723      16.652      29.625      43.369      55.096    
  62.831      65.777      64.285      59.545      53.127      46.264      39.476      33.087      27.307      22.247    
  17.936      14.343      11.400      9.0185      7.1063      5.5812      4.3754      3.4360      2.7223      2.2020    
  1.8499      1.6467      2.0961      2.1629      2.3676      2.7223      3.2457      3.9630      4.9056      6.1130    
  7.6364      9.5409      11.905      14.816      18.355      22.586      27.534      33.168      39.390      46.009    
  52.737      59.169      64.461      67.276      66.514      61.752      53.526      43.369      33.531      26.396    
  23.790      26.396      33.531      43.369      53.526      61.752      66.514      67.276      64.461      59.169    
  52.737      46.009      39.390      33.168      27.534      22.586      18.355      14.816      11.905      9.5409    
  7.6364      6.1130      4.9056      3.9630      3.2457      2.7223      2.3676      2.1629      2.8046      2.8721    
  3.0785      3.4360      3.9630      4.6839      5.6284      6.8343      8.3495      10.235      12.564      15.417    
  18.866      22.968      27.740      33.151      39.109      45.445      51.908      58.154      63.683      67.505    
  68.645      66.632      61.752      55.096      48.352      43.351      41.507      43.351      48.352      55.096    
  61.752      66.632      68.645      67.505      63.683      58.154      51.908      45.445      39.109      33.151    
  27.740      22.968      18.866      15.417      12.564      10.235      8.3495      6.8343      5.6284      4.6839    
  3.9630      3.4360      3.0785      2.8721      3.7386      3.8067      4.0150      4.3754      4.9056      5.6284    
  6.5715      7.7691      9.2646      11.113      13.381      16.139      19.451      23.362      27.883      32.981    
  38.567      44.493      50.541      56.421      61.782      66.079      68.526      68.645      66.514      62.831    
  58.769      55.638      54.466      55.638      58.769      62.831      66.514      68.645      68.526      66.079    
  61.782      56.421      50.541      44.493      38.567      32.981      27.883      23.362      19.451      16.139    
  13.381      11.113      9.2646      7.7691      6.5715      5.6284      4.9056      4.3754      4.0150      3.8067    
  4.9395      5.0082      5.2184      5.5812      6.1130      6.8343      7.7691      8.9467      10.405      12.191    
  14.362      16.979      20.096      23.747      27.935      32.624      37.731      43.124      48.615      53.962    
  58.879      63.060      66.079      67.505      67.276      65.777      63.751      62.067      61.418      62.067    
  63.751      65.777      67.276      67.505      66.079      63.060      58.879      53.962      48.615      43.124    
  37.731      32.624      27.935      23.747      20.096      16.979      14.362      12.191      10.405      8.9467    
  7.7691      6.8343      6.1130      5.5812      5.2184      5.0082      6.4616      6.5309      6.7426      7.1063    
  7.6364      8.3495      9.2646      10.405      11.799      13.488      15.517      17.938      20.794      24.111    
  27.883      32.074      36.606      41.360      46.176      50.855      55.168      58.879      61.782      63.683    
  64.461      64.285      63.575      62.857      62.562      62.857      63.575      64.285      64.461      63.683    
  61.782      58.879      55.168      50.855      46.176      41.360      36.606      32.074      27.883      24.111    
  20.794      17.938      15.517      13.488      11.799      10.405      9.2646      8.3495      7.6364      7.1063    
  6.7426      6.5309      8.3750      8.4447      8.6566      9.0185      9.5409      10.235      11.113      12.191    
  13.488      15.035      16.869      19.031      21.556      24.461      27.740      31.353      35.230      39.266    
  43.328      47.251      50.855      53.962      56.421      58.154      59.169      59.545      59.491      59.293    
  59.196      59.293      59.491      59.545      59.169      58.154      56.421      53.962      50.855      47.251    
  43.328      39.266      35.230      31.353      27.740      24.461      21.556      19.031      16.869      15.035    
  13.488      12.191      11.113      10.235      9.5409      9.0185      8.6566      8.4447      10.766      10.835    
  11.045      11.400      11.905      12.564      13.381      14.362      15.517      16.869      18.445      20.280    
  22.400      24.821      27.534      30.504      33.669      36.939      40.202      43.328      46.176      48.615    
  50.541      51.908      52.737      53.127      53.227      53.201      53.176      53.201      53.227      53.127    
  52.737      51.908      50.541      48.615      46.176      43.328      40.202      36.939      33.669      30.504    
  27.534      24.821      22.400      20.280      18.445      16.869      15.517      14.362      13.381      12.564    
  11.905      11.400      11.045      10.835      13.732      13.800      14.004      14.343      14.816      15.417    
  16.139      16.979      17.938      19.031      20.280      21.712      23.355      25.222      27.307      29.584    
  32.000      34.482      36.939      39.266      41.360      43.124      44.493      45.445      46.009      46.264    
  46.322      46.299      46.280      46.299      46.322      46.264      46.009      45.445      44.493      43.124    
  41.360      39.266      36.939      34.482      32.000      29.584      27.307      25.222      23.355      21.712    
  20.280      19.031      17.938      16.979      16.139      15.417      14.816      14.343      14.004      13.800    
  17.369      17.433      17.624      17.936      18.355      18.866      19.451      20.096      20.794      21.556    
  22.400      23.355      24.448      25.698      27.106      28.654      30.305      32.000      33.669      35.230    
  36.606      37.731      38.567      39.109      39.390      39.476      39.450      39.395      39.369      39.395    
  39.450      39.476      39.390      39.109      38.567      37.731      36.606      35.230      33.669      32.000    
  30.305      28.654      27.106      25.698      24.448      23.355      22.400      21.556      20.794      20.096    
  19.451      18.866      18.355      17.936      17.624      17.433      21.753      21.811      21.981      22.247    
  22.586      22.968      23.362      23.747      24.111      24.461      24.821      25.222      25.698      26.276    
  26.968      27.769      28.654      29.584      30.504      31.353      32.074      32.624      32.981      33.151    
  33.168      33.087      32.968      32.870      32.833      32.870      32.968      33.087      33.168      33.151    
  32.981      32.624      32.074      31.353      30.504      29.584      28.654      27.769      26.968      26.276    
  25.698      25.222      24.821      24.461      24.111      23.747      23.362      22.968      22.586      22.247    
  21.981      21.811      26.919      26.968      27.106      27.307      27.534      27.740      27.883      27.935    
  27.883      27.740      27.534      27.307      27.106      26.968      26.919      26.968      27.106      27.307    
  27.534      27.740      27.883      27.935      27.883      27.740      27.534      27.307      27.106      26.968    
  26.919      26.968      27.106      27.307      27.534      27.740      27.883      27.935      27.883      27.740    
  27.534      27.307      27.106      26.968      26.919      26.968      27.106      27.307      27.534      27.740    
  27.883      27.935      27.883      27.740      27.534      27.307      27.106      26.968      32.833      32.870    
  32.968      33.087      33.168      33.151      32.981      32.624      32.074      31.353      30.504      29.584    
  28.654      27.769      26.968      26.276      25.698      25.222      24.821      24.461      24.111      23.747    
  23.362      22.968      22.586      22.247      21.981      21.811      21.753      21.811      21.981      22.247    