diamond Si                              
   5.43100000000000     
     1.035977   -0.000000    0.000000
    -0.000000    1.035977   -0.000000
     0.000000   -0.000000    1.035977
   Si
     8
Direct
 -0.000000  0.000000  0.000000
  0.000000  0.500000  0.500000
  0.500000 -0.000000  0.500000
  0.500000  0.500000 -0.000000
  0.250000  0.250000  0.250000
  0.750000  0.750000  0.250000
  0.750000  0.250000  0.750000
  0.250000  0.750000  0.750000
 
   56   56   56
 -.33938136642E+02 -.28598691903E+02 -.13875204294E+02 0.67677269970E+01 0.28780411678E+02
 0.47845478558E+02 0.60956741715E+02 0.66952748502E+02 0.66446738727E+02 0.61298301430E+02
 0.53867612483E+02 0.46017021942E+02 0.38456566765E+02 0.31549492151E+02 0.25483772402E+02
 0.20318552520E+02 0.16026872372E+02 0.12529346100E+02 0.97196567110E+01 0.74840721435E+01
 0.57157973520E+01 0.43237274389E+01 0.32354812157E+01 0.23959036918E+01 0.17632551642E+01
 0.13053582107E+01 0.99716426974E+00 0.82006330855E+00 0.76236594573E+00 0.82006330855E+00
 0.99716426974E+00 0.13053582107E+01 0.17632551642E+01 0.23959036918E+01 0.32354812157E+01
 0.43237274389E+01 0.57157973520E+01 0.74840721435E+01 0.97196567110E+01 0.12529346100E+02
 0.16026872372E+02 0.20318552520E+02 0.25483772402E+02 0.31549492151E+02 0.38456566765E+02
 0.46017021942E+02 0.53867612483E+02 0.61298301430E+02 0.66446738727E+02 0.66952748502E+02
 0.60956741715E+02 0.47845478558E+02 0.28780411678E+02 0.67677269970E+01 -.13875204294E+02
 -.28598691903E+02 -.28598691903E+02 -.23457924055E+02 -.92928952124E+01 0.10533794089E+02
 0.31610937423E+02 0.49761395471E+02 0.62090918262E+02 0.67504036291E+02 0.66630646508E+02
 0.61305800319E+02 0.53837712890E+02 0.45998624363E+02 0.38459191489E+02 0.31573853756E+02
 0.25526011857E+02 0.20373303208E+02 0.16089103505E+02 0.12595192920E+02 0.97865629382E+01
 0.75505693388E+01 0.57811700038E+01 0.43877105613E+01 0.32980480773E+01 0.24571439205E+01
 0.18233187191E+01 0.13644378886E+01 0.10554949763E+01 0.87792219046E+00 0.82006330855E+00
 0.87792219046E+00 0.10554949763E+01 0.13644378886E+01 0.18233187191E+01 0.24571439205E+01
 0.32980480773E+01 0.43877105613E+01 0.57811700038E+01 0.75505693388E+01 0.97865629382E+01
 0.12595192920E+02 0.16089103505E+02 0.20373303208E+02 0.25526011857E+02 0.31573853756E+02
 0.38459191489E+02 0.45998624363E+02 0.53837712890E+02 0.61305800319E+02 0.66630646508E+02
 0.67504036291E+02 0.62090918262E+02 0.49761395471E+02 0.31610937423E+02 0.10533794089E+02
 -.92928952124E+01 -.23457924055E+02 -.13875204294E+02 -.92928952124E+01 0.33034562675E+01
 0.20840747083E+02 0.39300330048E+02 0.54901662659E+02 0.65065657504E+02 0.68880579422E+02
 0.67019458085E+02 0.61243535936E+02 0.53705702593E+02 0.45915537192E+02 0.38448547867E+02
 0.31634735666E+02 0.25645039652E+02 0.20533275077E+02 0.16274162328E+02 0.12793124935E+02
 0.99891535045E+01 0.77529349611E+01 0.59807702773E+01 0.45834559392E+01 0.34896666037E+01
 0.26448056337E+01 0.20074452291E+01 0.15456188953E+01 0.12344541449E+01 0.10554949763E+01
 0.99716426974E+00 0.10554949763E+01 0.12344541449E+01 0.15456188953E+01 0.20074452291E+01
 0.26448056337E+01 0.34896666037E+01 0.45834559392E+01 0.59807702773E+01 0.77529349611E+01
 0.99891535045E+01 0.12793124935E+02 0.16274162328E+02 0.20533275077E+02 0.25645039652E+02
 0.31634735666E+02 0.38448547867E+02 0.45915537192E+02 0.53705702593E+02 0.61243535936E+02
 0.67019458085E+02 0.68880579422E+02 0.65065657504E+02 0.54901662659E+02 0.39300330048E+02
 0.20840747083E+02 0.33034562675E+01 -.92928952124E+01 0.67677269970E+01 0.10533794089E+02
 0.20840747083E+02 0.35047274715E+02 0.49718738313E+02 0.61661784697E+02 0.68759557669E+02
 0.70363369230E+02 0.67197674102E+02 0.60900638942E+02 0.53360502071E+02 0.45693414661E+02
 0.38374274937E+02 0.31698139534E+02 0.25818808591E+02 0.20785695605E+02 0.16576659761E+02
 0.13123542630E+02 0.10332158198E+02 0.80989114831E+01 0.63242459074E+01 0.49216716012E+01
 0.38215381490E+01 0.29702698230E+01 0.23270761076E+01 0.18603975803E+01 0.15456188953E+01
 0.13644378886E+01 0.13053582107E+01 0.13644378886E+01 0.15456188953E+01 0.18603975803E+01
 0.23270761076E+01 0.29702698230E+01 0.38215381490E+01 0.49216716012E+01 0.63242459074E+01
 0.80989114831E+01 0.10332158198E+02 0.13123542630E+02 0.16576659761E+02 0.20785695605E+02
 0.25818808591E+02 0.31698139534E+02 0.38374274937E+02 0.45693414661E+02 0.53360502071E+02
 0.60900638942E+02 0.67197674102E+02 0.70363369230E+02 0.68759557669E+02 0.61661784697E+02
 0.49718738313E+02 0.35047274715E+02 0.20840747083E+02 0.10533794089E+02 0.28780411678E+02
 0.31610937423E+02 0.39300330048E+02 0.49718738313E+02 0.60120478961E+02 0.67999559993E+02
 0.71771794123E+02 0.71079112902E+02 0.66682166111E+02 0.60048488118E+02 0.52662724244E+02
 0.45235758051E+02 0.38168086452E+02 0.31715623117E+02 0.26014145531E+02 0.21109974569E+02
 0.16986594475E+02 0.13585157548E+02 0.10821105452E+02 0.85990170321E+01 0.68254940382E+01
 0.54183503773E+01 0.43108369224E+01 0.34513232611E+01 0.28003156704E+01 0.23270761076E+01
 0.20074452291E+01 0.18233187191E+01 0.17632551642E+01 0.18233187191E+01 0.20074452291E+01
 0.23270761076E+01 0.28003156704E+01 0.34513232611E+01 0.43108369224E+01 0.54183503773E+01
 0.68254940382E+01 0.85990170321E+01 0.10821105452E+02 0.13585157548E+02 0.16986594475E+02
 0.21109974569E+02 0.26014145531E+02 0.31715623117E+02 0.38168086452E+02 0.45235758051E+02
 0.52662724244E+02 0.60048488118E+02 0.66682166111E+02 0.71079112902E+02 0.71771794123E+02
 0.67999559993E+02 0.60120478961E+02 0.49718738313E+02 0.39300330048E+02 0.31610937423E+02
 0.47845478558E+02 0.49761395471E+02 0.54901662659E+02 0.61661784697E+02 0.67999559993E+02
 0.72102754885E+02 0.72911832568E+02 0.70335295032E+02 0.65133222209E+02 0.58541807322E+02
 0.51492459749E+02 0.44453914162E+02 0.37762087916E+02 0.31634966795E+02 0.26192381481E+02
 0.21480017675E+02 0.17489532239E+02 0.14173892839E+02 0.11460579658E+02 0.92646214440E+01
 0.75008648582E+01 0.60932723275E+01 0.49795645864E+01 0.41113280849E+01 0.34513232611E+01
 0.29702698230E+01 0.26448056337E+01 0.24571439205E+01 0.23959036918E+01 0.24571439205E+01
 0.26448056337E+01 0.29702698230E+01 0.34513232611E+01 0.41113280849E+01 0.49795645864E+01
 0.60932723275E+01 0.75008648582E+01 0.92646214440E+01 0.11460579658E+02 0.14173892839E+02
 0.17489532239E+02 0.21480017675E+02 0.26192381481E+02 0.31634966795E+02 0.37762087916E+02
 0.44453914162E+02 0.51492459749E+02 0.58541807322E+02 0.65133222209E+02 0.70335295032E+02
 0.72911832568E+02 0.72102754885E+02 0.67999559993E+02 0.61661784697E+02 0.54901662659E+02
 0.49761395471E+02 0.60956741715E+02 0.62090918262E+02 0.65065657504E+02 0.68759557669E+02
 0.71771794123E+02 0.72911832568E+02 0.71572657104E+02 0.67865266518E+02 0.62498223479E+02
 0.56310840307E+02 0.49786174762E+02 0.43292393191E+02 0.37106116426E+02 0.31411885278E+02
 0.26316979548E+02 0.21868849370E+02 0.18069057683E+02 0.14883865548E+02 0.12254333283E+02
 0.10107671769E+02 0.83688478208E+01 0.69698579240E+01 0.58546525545E+01 0.49795645864E+01
 0.43108369224E+01 0.38215381490E+01 0.34896666037E+01 0.32980480773E+01 0.32354812157E+01
 0.32980480773E+01 0.34896666037E+01 0.38215381490E+01 0.43108369224E+01 0.49795645864E+01
 0.58546525545E+01 0.69698579240E+01 0.83688478208E+01 0.10107671769E+02 0.12254333283E+02
 0.14883865548E+02 0.18069057683E+02 0.21868849370E+02 0.26316979548E+02 0.31411885278E+02
 0.37106116426E+02 0.43292393191E+02 0.49786174762E+02 0.56310840307E+02 0.62498223479E+02
 0.67865266518E+02 0.71572657104E+02 0.72911832568E+02 0.71771794123E+02 0.68759557669E+02
 0.65065657504E+02 0.62090918262E+02 0.66952748502E+02 0.67504036291E+02 0.68880579422E+02
 0.70363369230E+02 0.71079112902E+02 0.70335295032E+02 0.67865266518E+02 0.63896729527E+02
 0.58943182271E+02 0.53383077760E+02 0.47551933606E+02 0.41742331850E+02 0.36179510086E+02
 0.31020029007E+02 0.26361698007E+02 0.22254969305E+02 0.18711505100E+02 0.15710810009E+02
 0.13207797138E+02 0.11142678768E+02 0.94518511765E+01 0.80769516154E+01 0.69698579240E+01
 0.60932723275E+01 0.54183503773E+01 0.49216716012E+01 0.45834559392E+01 0.43877105613E+01
 0.43237274389E+01 0.43877105613E+01 0.45834559392E+01 0.49216716012E+01 0.54183503773E+01
 0.60932723275E+01 0.69698579240E+01 0.80769516154E+01 0.94518511765E+01 0.11142678768E+02
 0.13207797138E+02 0.15710810009E+02 0.18711505100E+02 0.22254969305E+02 0.26361698007E+02
 0.31020029007E+02 0.36179510086E+02 0.41742331850E+02 0.47551933606E+02 0.53383077760E+02
 0.58943182271E+02 0.63896729527E+02 0.67865266518E+02 0.70335295032E+02 0.71079112902E+02
 0.70363369230E+02 0.68880579422E+02 0.67504036291E+02 0.66446738727E+02 0.66630646508E+02
 0.67019458085E+02 0.67197674102E+02 0.66682166111E+02 0.65133222209E+02 0.62498223479E+02
 0.58943182271E+02 0.54655328676E+02 0.49876701136E+02 0.44862595455E+02 0.39841278303E+02
 0.34994872326E+02 0.30456758807E+02 0.26316979548E+02 0.22628470553E+02 0.19411357951E+02
 0.16656651084E+02 0.14331941289E+02 0.12390083766E+02 0.10779305543E+02 0.94518511765E+01
 0.83688478208E+01 0.75008648582E+01 0.68254940382E+01 0.63242459074E+01 0.59807702773E+01
 0.57811700038E+01 0.57157973520E+01 0.57811700038E+01 0.59807702773E+01 0.63242459074E+01
 0.68254940382E+01 0.75008648582E+01 0.83688478208E+01 0.94518511765E+01 0.10779305543E+02
 0.12390083766E+02 0.14331941289E+02 0.16656651084E+02 0.19411357951E+02 0.22628470553E+02
 0.26316979548E+02 0.30456758807E+02 0.34994872326E+02 0.39841278303E+02 0.44862595455E+02
 0.49876701136E+02 0.54655328676E+02 0.58943182271E+02 0.62498223479E+02 0.65133222209E+02
 0.66682166111E+02 0.67197674102E+02 0.67019458085E+02 0.66630646508E+02 0.61298301430E+02
 0.61305800319E+02 0.61243535936E+02 0.60900638942E+02 0.60048488118E+02 0.58541807322E+02
 0.56310840307E+02 0.53383077760E+02 0.49876701136E+02 0.45964382995E+02 0.41834575729E+02
 0.37662359663E+02 0.33594089796E+02 0.29743334515E+02 0.26192381481E+02 0.22994416695E+02
 0.20174791598E+02 0.17732816923E+02 0.15646226930E+02 0.13878883294E+02 0.12390083766E+02
 0.11142678768E+02 0.10107671769E+02 0.92646214440E+01 0.85990170321E+01 0.80989114831E+01
 0.77529349611E+01 0.75505693388E+01 0.74840721435E+01 0.75505693388E+01 0.77529349611E+01
 0.80989114831E+01 0.85990170321E+01 0.92646214440E+01 0.10107671769E+02 0.11142678768E+02
 0.12390083766E+02 0.13878883294E+02 0.15646226930E+02 0.17732816923E+02 0.20174791598E+02
 0.22994416695E+02 0.26192381481E+02 0.29743334515E+02 0.33594089796E+02 0.37662359663E+02
 0.41834575729E+02 0.45964382995E+02 0.49876701136E+02 0.53383077760E+02 0.56310840307E+02
 0.58541807322E+02 0.60048488118E+02 0.60900638942E+02 0.61243535936E+02 0.61305800319E+02
 0.53867612483E+02 0.53837712890E+02 0.53705702593E+02 0.53360502071E+02 0.52662724244E+02
 0.51492459749E+02 0.49786174762E+02 0.47551933606E+02 0.44862595455E+02 0.41834575729E+02
 0.38602554110E+02 0.35298542599E+02 0.32039111714E+02 0.28919918167E+02 0.26014145531E+02
 0.23371838562E+02 0.21019344082E+02 0.18960105431E+02 0.17178393050E+02 0.15646226930E+02
 0.14331941289E+02 0.13207797138E+02 0.12254333283E+02 0.11460579658E+02 0.10821105452E+02
 0.10332158198E+02 0.99891535045E+01 0.97865629382E+01 0.97196567110E+01 0.97865629382E+01
 0.99891535045E+01 0.10332158198E+02 0.10821105452E+02 0.11460579658E+02 0.12254333283E+02
 0.13207797138E+02 0.14331941289E+02 0.15646226930E+02 0.17178393050E+02 0.18960105431E+02
 0.21019344082E+02 0.23371838562E+02 0.26014145531E+02 0.28919918167E+02 0.32039111714E+02
 0.35298542599E+02 0.38602554110E+02 0.41834575729E+02 0.44862595455E+02 0.47551933606E+02
 0.49786174762E+02 0.51492459749E+02 0.52662724244E+02 0.53360502071E+02 0.53705702593E+02
 0.53837712890E+02 0.46017021942E+02 0.45998624363E+02 0.45915537192E+02 0.45693414661E+02
 0.45235758051E+02 0.44453914162E+02 0.43292393191E+02 0.41742331850E+02 0.39841278303E+02
 0.37662359663E+02 0.35298542599E+02 0.32847579412E+02 0.30400969652E+02 0.28037350230E+02
 0.25818808591E+02 0.23788524427E+02 0.21969378828E+02 0.20364400887E+02 0.18960105431E+02
 0.17732816923E+02 0.16656651084E+02 0.15710810009E+02 0.14883865548E+02 0.14173892839E+02
 0.13585157548E+02 0.13123542630E+02 0.12793124935E+02 0.12595192920E+02 0.12529346100E+02
 0.12595192920E+02 0.12793124935E+02 0.13123542630E+02 0.13585157548E+02 0.14173892839E+02
 0.14883865548E+02 0.15710810009E+02 0.16656651084E+02 0.17732816923E+02 0.18960105431E+02
 0.20364400887E+02 0.21969378828E+02 0.23788524427E+02 0.25818808591E+02 0.28037350230E+02
 0.30400969652E+02 0.32847579412E+02 0.35298542599E+02 0.37662359663E+02 0.39841278303E+02
 0.41742331850E+02 0.43292393191E+02 0.44453914162E+02 0.45235758051E+02 0.45693414661E+02
 0.45915537192E+02 0.45998624363E+02 0.38456566765E+02 0.38459191489E+02 0.38448547867E+02
 0.38374274937E+02 0.38168086452E+02 0.37762087916E+02 0.37106116426E+02 0.36179510086E+02
 0.34994872326E+02 0.33594089796E+02 0.32039111714E+02 0.30400969652E+02 0.28749944289E+02
 0.27148234935E+02 0.25645039652E+02 0.24273429659E+02 0.23048804690E+02 0.21969378828E+02
 0.21019344082E+02 0.20174791598E+02 0.19411357951E+02 0.18711505100E+02 0.18069057683E+02
 0.17489532239E+02 0.16986594475E+02 0.16576659761E+02 0.16274162328E+02 0.16089103505E+02
 0.16026872372E+02 0.16089103505E+02 0.16274162328E+02 0.16576659761E+02 0.16986594475E+02
 0.17489532239E+02 0.18069057683E+02 0.18711505100E+02 0.19411357951E+02 0.20174791598E+02
 0.21019344082E+02 0.21969378828E+02 0.23048804690E+02 0.24273429659E+02 0.25645039652E+02
 0.27148234935E+02 0.28749944289E+02 0.30400969652E+02 0.32039111714E+02 0.33594089796E+02
 0.34994872326E+02 0.36179510086E+02 0.37106116426E+02 0.37762087916E+02 0.38168086452E+02
 0.38374274937E+02 0.38448547867E+02 0.38459191489E+02 0.31549492151E+02 0.31573853756E+02
 0.31634735666E+02 0.31698139534E+02 0.31715623117E+02 0.31634966795E+02 0.31411885278E+02
 0.31020029007E+02 0.30456758807E+02 0.29743334515E+02 0.28919918167E+02 0.28037350230E+02
 0.27148234935E+02 0.26299316027E+02 0.25526011857E+02 0.24849111175E+02 0.24273429659E+02
 0.23788524427E+02 0.23371838562E+02 0.22994416695E+02 0.22628470553E+02 0.22254969305E+02
 0.21868849370E+02 0.21480017675E+02 0.21109974569E+02 0.20785695605E+02 0.20533275077E+02
 0.20373303208E+02 0.20318552520E+02 0.20373303208E+02 0.20533275077E+02 0.20785695605E+02
 0.21109974569E+02 0.21480017675E+02 0.21868849370E+02 0.22254969305E+02 0.22628470553E+02
 0.22994416695E+02 0.23371838562E+02 0.23788524427E+02 0.24273429659E+02 0.24849111175E+02
 0.25526011857E+02 0.26299316027E+02 0.27148234935E+02 0.28037350230E+02 0.28919918167E+02
 0.29743334515E+02 0.30456758807E+02 0.31020029007E+02 0.31411885278E+02 0.31634966795E+02
 0.31715623117E+02 0.31698139534E+02 0.31634735666E+02 0.31573853756E+02 0.25483772402E+02
 0.25526011857E+02 0.25645039652E+02 0.25818808591E+02 0.26014145531E+02 0.26192381481E+02
 0.26316979548E+02 0.26361698007E+02 0.26316979548E+02 0.26192381481E+02 0.26014145531E+02
 0.25818808591E+02 0.25645039652E+02 0.25526011857E+02 0.25483772402E+02 0.25526011857E+02
 0.25645039652E+02 0.25818808591E+02 0.26014145531E+02 0.26192381481E+02 0.26316979548E+02
 0.26361698007E+02 0.26316979548E+02 0.26192381481E+02 0.26014145531E+02 0.25818808591E+02
 0.25645039652E+02 0.25526011857E+02 0.25483772402E+02 0.25526011857E+02 0.25645039652E+02
 0.25818808591E+02 0.26014145531E+02 0.26192381481E+02 0.26316979548E+02 0.26361698007E+02
 0.26316979548E+02 0.26192381481E+02 0.26014145531E+02 0.25818808591E+02 0.25645039652E+02
 0.25526011857E+02 0.25483772402E+02 0.25526011857E+02 0.25645039652E+02 0.25818808591E+02
 0.26014145531E+02 0.26192381481E+02 0.26316979548E+02 0.26361698007E+02 0.26316979548E+02
 0.26192381481E+02 0.26014145531E+02 0.25818808591E+02 0.25645039652E+02 0.25526011857E+02
 0.20318552520E+02 0.20373303208E+02 0.20533275077E+02 0.20785695605E+02 0.21109974569E+02
 0.21480017675E+02 0.21868849370E+02 0.22254969305E+02 0.22628470553E+02 0.22994416695E+02
 0.23371838562E+02 0.23788524427E+02 0.24273429659E+02 0.24849111175E+02 0.25526011857E+02
 0.26299316027E+02 0.27148234935E+02 0.28037350230E+02 0.28919918167E+02 0.29743334515E+02
 0.30456758807E+02 0.31020029007E+02 0.31411885278E+02 0.31634966795E+02 0.31715623117E+02
 0.31698139534E+02 0.31634735666E+02 0.31573853756E+02 0.31549492151E+02 0.31573853756E+02
 0.31634735666E+02 0.31698139534E+02 0.31715623117E+02 0.31634966795E+02 0.31411885278E+02
 0.31020029007E+02 0.30456758807E+02 0.29743334515E+02 0.28919918167E+02 0.28037350230E+02
 0.27148234935E+02 0.26299316027E+02 0.25526011857E+02 0.24849111175E+02 0.24273429659E+02
 0.23788524427E+02 0.23371838562E+02 0.22994416695E+02 0.22628470553E+02 0.22254969305E+02
 0.21868849370E+02 0.21480017675E+02 0.21109974569E+02 0.20785695605E+02 0.20533275077E+02
 0.20373303208E+02 0.16026872372E+02 0.16089103505E+02 0.16274162328E+02 0.16576659761E+02
 0.16986594475E+02 0.17489532239E+02 0.18069057683E+02 0.18711505100E+02 0.19411357951E+02
 0.20174791598E+02 0.21019344082E+02 0.21969378828E+02 0.23048804690E+02 0.24273429659E+02
 0.25645039652E+02 0.27148234935E+02 0.28749944289E+02 0.30400969652E+02 0.32039111714E+02
 0.33594089796E+02 0.34994872326E+02 0.36179510086E+02 0.37106116426E+02 0.37762087916E+02
 0.38168086452E+02 0.38374274937E+02 0.38448547867E+02 0.38459191489E+02 0.38456566765E+02
 0.38459191489E+02 0.38448547867E+02 0.38374274937E+02 0.38168086452E+02 0.37762087916E+02
 0.37106116426E+02 0.36179510086E+02 0.34994872326E+02 0.33594089796E+02 0.32039111714E+02
 0.30400969652E+02 0.28749944289E+02 0.27148234935E+02 0.25645039652E+02 0.24273429659E+02
 0.23048804690E+02 0.21969378828E+02 0.21019344082E+02 0.20174791598E+02 0.19411357951E+02
 0.18711505100E+02 0.18069057683E+02 0.17489532239E+02 0.16986594475E+02 0.16576659761E+02
 0.16274162328E+02 0.16089103505E+02 0.12529346100E+02 0.12595192920E+02 0.12793124935E+02
 0.13123542630E+02 0.13585157548E+02 0.14173892839E+02 0.14883865548E+02 0.15710810009E+02
 0.16656651084E+02 0.17732816923E+02 0.18960105431E+02 0.20364400887E+02 0.21969378828E+02
 0.23788524427E+02 0.25818808591E+02 0.28037350230E+02 0.30400969652E+02 0.32847579412E+02
 0.35298542599E+02 0.37662359663E+02 0.39841278303E+02 0.41742331850E+02 0.43292393191E+02
 0.44453914162E+02 0.45235758051E+02 0.45693414661E+02 0.45915537192E+02 0.45998624363E+02
 0.46017021942E+02 0.45998624363E+02 0.45915537192E+02 0.45693414661E+02 0.45235758051E+02
 0.44453914162E+02 0.43292393191E+02 0.41742331850E+02 0.39841278303E+02 0.37662359663E+02
 0.35298542599E+02 0.32847579412E+02 0.30400969652E+02 0.28037350230E+02 0.25818808591E+02
 0.23788524427E+02 0.21969378828E+02 0.20364400887E+02 0.18960105431E+02 0.17732816923E+02
 0.16656651084E+02 0.15710810009E+02 0.14883865548E+02 0.14173892839E+02 0.13585157548E+02
 0.13123542630E+02 0.12793124935E+02 0.12595192920E+02 0.97196567110E+01 0.97865629382E+01
 0.99891535045E+01 0.10332158198E+02 0.10821105452E+02 0.11460579658E+02 0.12254333283E+02
 0.13207797138E+02 0.14331941289E+02 0.15646226930E+02 0.17178393050E+02 0.18960105431E+02
 0.21019344082E+02 0.23371838562E+02 0.26014145531E+02 0.28919918167E+02 0.32039111714E+02
 0.35298542599E+02 0.38602554110E+02 0.41834575729E+02 0.44862595455E+02 0.47551933606E+02
 0.49786174762E+02 0.51492459749E+02 0.52662724244E+02 0.53360502071E+02 0.53705702593E+02
 0.53837712890E+02 0.53867612483E+02 0.53837712890E+02 0.53705702593E+02 0.53360502071E+02
 0.52662724244E+02 0.51492459749E+02 0.49786174762E+02 0.47551933606E+02 0.44862595455E+02
 0.41834575729E+02 0.38602554110E+02 0.35298542599E+02 0.32039111714E+02 0.28919918167E+02
 0.26014145531E+02 0.23371838562E+02 0.21019344082E+02 0.18960105431E+02 0.17178393050E+02
 0.15646226930E+02 0.14331941289E+02 0.13207797138E+02 0.12254333283E+02 0.11460579658E+02
 0.10821105452E+02 0.10332158198E+02 0.99891535045E+01 0.97865629382E+01 0.74840721435E+01
 0.75505693388E+01 0.77529349611E+01 0.80989114831E+01 0.85990170321E+01 0.92646214440E+01
 0.10107671769E+02 0.11142678768E+02 0.12390083766E+02 0.13878883294E+02 0.15646226930E+02
 0.17732816923E+02 0.20174791598E+02 0.22994416695E+02 0.26192381481E+02 0.29743334515E+02
 0.33594089796E+02 0.37662359663E+02 0.41834575729E+02 0.45964382995E+02 0.49876701136E+02
 0.53383077760E+02 0.56310840307E+02 0.58541807322E+02 0.60048488118E+02 0.60900638942E+02
 0.61243535936E+02 0.61305800319E+02 0.61298301430E+02 0.61305800319E+02 0.61243535936E+02
 0.60900638942E+02 0.60048488118E+02 0.58541807322E+02 0.56310840307E+02 0.53383077760E+02
 0.49876701136E+02 0.45964382995E+02 0.41834575729E+02 0.37662359663E+02 0.33594089796E+02
 0.29743334515E+02 0.26192381481E+02 0.22994416695E+02 0.20174791598E+02 0.17732816923E+02
 0.15646226930E+02 0.13878883294E+02 0.12390083766E+02 0.11142678768E+02 0.10107671769E+02
 0.92646214440E+01 0.85990170321E+01 0.80989114831E+01 0.77529349611E+01 0.75505693388E+01
 0.57157973520E+01 0.57811700038E+01 0.59807702773E+01 0.63242459074E+01 0.68254940382E+01
 0.75008648582E+01 0.83688478208E+01 0.94518511765E+01 0.10779305543E+02 0.12390083766E+02
 0.14331941289E+02 0.16656651084E+02 0.19411357951E+02 0.22628470553E+02 0.26316979548E+02
 0.30456758807E+02 0.34994872326E+02 0.39841278303E+02 0.44862595455E+02 0.49876701136E+02
 0.54655328676E+02 0.58943182271E+02 0.62498223479E+02 0.65133222209E+02 0.66682166111E+02
 0.67197674102E+02 0.67019458085E+02 0.66630646508E+02 0.66446738727E+02 0.66630646508E+02
 0.67019458085E+02 0.67197674102E+02 0.66682166111E+02 0.65133222209E+02 0.62498223479E+02
 0.58943182271E+02 0.54655328676E+02 0.49876701136E+02 0.44862595455E+02 0.39841278303E+02
 0.34994872326E+02 0.30456758807E+02 0.26316979548E+02 0.22628470553E+02 0.19411357951E+02
 0.16656651084E+02 0.14331941289E+02 0.12390083766E+02 0.10779305543E+02 0.94518511765E+01
 0.83688478208E+01 0.75008648582E+01 0.68254940382E+01 0.63242459074E+01 0.59807702773E+01
 0.57811700038E+01 0.43237274389E+01 0.43877105613E+01 0.45834559392E+01 0.49216716012E+01
 0.54183503773E+01 0.60932723275E+01 0.69698579240E+01 0.80769516154E+01 0.94518511765E+01
 0.11142678768E+02 0.13207797138E+02 0.15710810009E+02 0.18711505100E+02 0.22254969305E+02
 0.26361698007E+02 0.31020029007E+02 0.36179510086E+02 0.41742331850E+02 0.47551933606E+02
 0.53383077760E+02 0.58943182271E+02 0.63896729527E+02 0.67865266518E+02 0.70335295032E+02
 0.71079112902E+02 0.70363369230E+02 0.68880579422E+02 0.67504036291E+02 0.66952748502E+02
 0.67504036291E+02 0.68880579422E+02 0.70363369230E+02 0.71079112902E+02 0.70335295032E+02
 0.67865266518E+02 0.63896729527E+02 0.58943182271E+02 0.53383077760E+02 0.47551933606E+02
 0.41742331850E+02 0.36179510086E+02 0.31020029007E+02 0.26361698007E+02 0.22254969305E+02
 0.18711505100E+02 0.15710810009E+02 0.13207797138E+02 0.11142678768E+02 0.94518511765E+01
 0.80769516154E+01 0.69698579240E+01 0.60932723275E+01 0.54183503773E+01 0.49216716012E+01
 0.45834559392E+01 0.43877105613E+01 0.32354812157E+01 0.32980480773E+01 0.34896666037E+01
 0.38215381490E+01 0.43108369224E+01 0.49795645864E+01 0.58546525545E+01 0.69698579240E+01
 0.83688478208E+01 0.10107671769E+02 0.12254333283E+02 0.14883865548E+02 0.18069057683E+02
 0.21868849370E+02 0.26316979548E+02 0.31411885278E+02 0.37106116426E+02 0.43292393191E+02
 0.49786174762E+02 0.56310840307E+02 0.62498223479E+02 0.67865266518E+02 0.71572657104E+02
 0.72911832568E+02 0.71771794123E+02 0.68759557669E+02 0.65065657504E+02 0.62090918262E+02
 0.60956741715E+02 0.62090918262E+02 0.65065657504E+02 0.68759557669E+02 0.71771794123E+02
 0.72911832568E+02 0.71572657104E+02 0.67865266518E+02 0.62498223479E+02 0.56310840307E+02
 0.49786174762E+02 0.43292393191E+02 0.37106116426E+02 0.31411885278E+02 0.26316979548E+02
 0.21868849370E+02 0.18069057683E+02 0.14883865548E+02 0.12254333283E+02 0.10107671769E+02
 0.83688478208E+01 0.69698579240E+01 0.58546525545E+01 0.49795645864E+01 0.43108369224E+01
 0.38215381490E+01 0.34896666037E+01 0.32980480773E+01 0.23959036918E+01 0.24571439205E+01
 0.26448056337E+01 0.29702698230E+01 0.34513232611E+01 0.41113280849E+01 0.49795645864E+01
 0.60932723275E+01 0.75008648582E+01 0.92646214440E+01 0.11460579658E+02 0.14173892839E+02
 0.17489532239E+02 0.21480017675E+02 0.26192381481E+02 0.31634966795E+02 0.37762087916E+02
 0.44453914162E+02 0.51492459749E+02 0.58541807322E+02 0.65133222209E+02 0.70335295032E+02
 0.72911832568E+02 0.72102754885E+02 0.67999559993E+02 0.61661784697E+02 0.54901662659E+02
 0.49761395471E+02 0.47845478558E+02 0.49761395471E+02 0.54901662659E+02 0.61661784697E+02
 0.67999559993E+02 0.72102754885E+02 0.72911832568E+02 0.70335295032E+02 0.65133222209E+02
 0.58541807322E+02 0.51492459749E+02 0.44453914162E+02 0.37762087916E+02 0.31634966795E+02
 0.26192381481E+02 0.21480017675E+02 0.17489532239E+02 0.14173892839E+02 0.11460579658E+02
 0.92646214440E+01 0.75008648582E+01 0.60932723275E+01 0.49795645864E+01 0.41113280849E+01
 0.34513232611E+01 0.29702698230E+01 0.26448056337E+01 0.24571439205E+01 0.17632551642E+01
 0.18233187191E+01 0.20074452291E+01 0.23270761076E+01 0.28003156704E+01 0.34513232611E+01
 0.43108369224E+01 0.54183503773E+01 0.68254940382E+01 0.85990170321E+01 0.10821105452E+02
 0.13585157548E+02 0.16986594475E+02 0.21109974569E+02 0.26014145531E+02 0.31715623117E+02
 0.38168086452E+02 0.45235758051E+02 0.52662724244E+02 0.60048488118E+02 0.66682166111E+02
 0.71079112902E+02 0.71771794123E+02 0.67999559993E+02 0.60120478961E+02 0.49718738313E+02
 0.39300330048E+02 0.31610937423E+02 0.28780411678E+02 0.31610937423E+02 0.39300330048E+02
 0.49718738313E+02 0.60120478961E+02 0.67999559993E+02 0.71771794123E+02 0.71079112902E+02
 0.66682166111E+02 0.60048488118E+02 0.52662724244E+02 0.45235758051E+02 0.38168086452E+02
 0.31715623117E+02 0.26014145531E+02 0.21109974569E+02 0.16986594475E+02 0.13585157548E+02
 0.10821105452E+02 0.85990170321E+01 0.68254940382E+01 0.54183503773E+01 0.43108369224E+01
 0.34513232611E+01 0.28003156704E+01 0.23270761076E+01 0.20074452291E+01 0.18233187191E+01
 0.13053582107E+01 0.13644378886E+01 0.15456188953E+01 0.18603975803E+01 0.23270761076E+01
 0.29702698230E+01 0.38215381490E+01 0.49216716012E+01 0.63242459074E+01 0.80989114831E+01
 0.10332158198E+02 0.13123542630E+02 0.16576659761E+02 0.20785695605E+02 0.25818808591E+02
 0.31698139534E+02 0.38374274937E+02 0.45693414661E+02 0.53360502071E+02 0.60900638942E+02
 0.67197674102E+02 0.70363369230E+02 0.68759557669E+02 0.61661784697E+02 0.49718738313E+02
 0.35047274715E+02 0.20840747083E+02 0.10533794089E+02 0.67677269970E+01 0.10533794089E+02
 0.20840747083E+02 0.35047274715E+02 0.49718738313E+02 0.61661784697E+02 0.68759557669E+02
 0.70363369230E+02 0.67197674102E+02 0.60900638942E+02 0.53360502071E+02 0.45693414661E+02
 0.38374274937E+02 0.31698139534E+02 0.25818808591E+02 0.20785695605E+02 0.16576659761E+02
 0.13123542630E+02 0.10332158198E+02 0.80989114831E+01 0.63242459074E+01 0.49216716012E+01
 0.38215381490E+01 0.29702698230E+01 0.23270761076E+01 0.18603975803E+01 0.15456188953E+01
 0.13644378886E+01 0.99716426974E+00 0.10554949763E+01 0.12344541449E+01 0.15456188953E+01
 0.20074452291E+01 0.26448056337E+01 0.34896666037E+01 0.45834559392E+01 0.59807702773E+01
 0.77529349611E+01 0.99891535045E+01 0.12793124935E+02 0.16274162328E+02 0.20533275077E+02
 0.25645039652E+02 0.31634735666E+02 0.38448547867E+02 0.45915537192E+02 0.53705702593E+02
 0.61243535936E+02 0.67019458085E+02 0.68880579422E+02 0.65065657504E+02 0.54901662659E+02
 0.39300330048E+02 0.20840747083E+02 0.33034562675E+01 -.92928952124E+01 -.13875204294E+02
 -.92928952124E+01 0.33034562675E+01 0.20840747083E+02 0.39300330048E+02 0.54901662659E+02
 0.65065657504E+02 0.68880579422E+02 0.67019458085E+02 0.61243535936E+02 0.53705702593E+02
 0.45915537192E+02 0.38448547867E+02 0.31634735666E+02 0.25645039652E+02 0.20533275077E+02
 0.16274162328E+02 0.12793124935E+02 0.99891535045E+01 0.77529349611E+01 0.59807702773E+01
 0.45834559392E+01 0.34896666037E+01 0.26448056337E+01 0.20074452291E+01 0.15456188953E+01
 0.12344541449E+01 0.10554949763E+01 0.82006330855E+00 0.87792219046E+00 0.10554949763E+01
 0.13644378886E+01 0.18233187191E+01 0.24571439205E+01 0.32980480773E+01 0.43877105613E+01
 0.57811700038E+01 0.75505693388E+01 0.97865629382E+01 0.12595192920E+02 0.16089103505E+02
 0.20373303208E+02 0.25526011857E+02 0.31573853756E+02 0.38459191489E+02 0.45998624363E+02
 0.53837712890E+02 0.61305800319E+02 0.66630646508E+02 0.67504036291E+02 0.62090918262E+02
 0.49761395471E+02 0.31610937423E+02 0.10533794089E+02 -.92928952124E+01 -.23457924055E+02
 -.28598691903E+02 -.23457924055E+02 -.92928952124E+01 0.10533794089E+02 0.31610937423E+02
 0.49761395471E+02 0.62090918262E+02 0.67504036291E+02 0.66630646508E+02 0.61305800319E+02
 0.53837712890E+02 0.45998624363E+02 0.38459191489E+02 0.31573853756E+02 0.25526011857E+02
 0.20373303208E+02 0.16089103505E+02 0.12595192920E+02 0.97865629382E+01 0.75505693388E+01
 0.57811700038E+01 0.43877105613E+01 0.32980480773E+01 0.24571439205E+01 0.18233187191E+01
 0.13644378886E+01 0.10554949763E+01 0.87792219046E+00 0.76236594573E+00 0.82006330855E+00
 0.99716426974E+00 0.13053582107E+01 0.17632551642E+01 0.23959036918E+01 0.32354812157E+01
 0.43237274389E+01 0.57157973520E+01 0.74840721435E+01 0.97196567110E+01 0.12529346100E+02
 0.16026872372E+02 0.20318552520E+02 0.25483772402E+02 0.31549492151E+02 0.38456566765E+02
 0.46017021942E+02 0.53867612483E+02 0.61298301430E+02 0.66446738727E+02 0.66952748502E+02
 0.60956741715E+02 0.47845478558E+02 0.28780411678E+02 0.67677269970E+01 -.13875204294E+02
 -.28598691903E+02 -.33938136642E+02 -.28598691903E+02 -.13875204294E+02 0.67677269970E+01
 0.28780411678E+02 0.47845478558E+02 0.60956741715E+02 0.66952748502E+02 0.66446738727E+02
 0.61298301430E+02 0.53867612483E+02 0.46017021942E+02 0.38456566765E+02 0.31549492151E+02
 0.25483772402E+02 0.20318552520E+02 0.16026872372E+02 0.12529346100E+02 0.97196567110E+01
 0.74840721435E+01 0.57157973520E+01 0.43237274389E+01 0.32354812157E+01 0.23959036918E+01