   8   8   0   0
  0.2002393E+02  0.5431000E-09  0.5431000E-09  0.5431000E-09  0.1000000E-14
  1.000000000000000E-004
  CAR 
 diamond Si                              
      8.52776306     -7.19740633  301      5.52900889      1.00000000
     -7.197  0.0000E+00  0.0000E+00
     -7.145  0.0000E+00  0.0000E+00
     -7.093  0.0000E+00  0.0000E+00
     -7.040  0.0000E+00  0.0000E+00
     -6.988  0.0000E+00  0.0000E+00
     -6.935  0.0000E+00  0.0000E+00
     -6.883  0.0000E+00  0.0000E+00
     -6.830  0.0000E+00  0.0000E+00
     -6.778  0.4707E-15  0.2467E-16
     -6.726  0.1690E-12  0.8882E-14
     -6.673  0.3599E-10  0.1895E-11
     -6.621  0.4469E-08  0.2361E-09
     -6.568  0.3238E-06  0.1721E-07
     -6.516  0.1372E-04  0.7363E-06
     -6.464  0.3403E-03  0.1858E-04
     -6.411  0.4955E-02  0.2783E-03
     -6.359  0.4243E-01  0.2502E-02
     -6.306  0.2141E+00  0.1372E-01
     -6.254  0.6377E+00  0.4715E-01
     -6.201  0.1123E+01  0.1060E+00
     -6.149  0.1170E+01  0.1673E+00
     -6.097  0.7207E+00  0.2051E+00
     -6.044  0.2626E+00  0.2189E+00
     -5.992  0.5649E-01  0.2218E+00
     -5.939  0.7163E-02  0.2222E+00
     -5.887  0.5343E-03  0.2222E+00
     -5.835  0.2340E-04  0.2222E+00
     -5.782  0.6004E-06  0.2222E+00
     -5.730  0.9007E-08  0.2222E+00
     -5.677  0.7887E-10  0.2222E+00
     -5.625  0.4029E-12  0.2222E+00
     -5.572  0.9414E-15  0.2222E+00
     -5.520  0.0000E+00  0.2222E+00
     -5.468  0.0000E+00  0.2222E+00
     -5.415  0.0000E+00  0.2222E+00
     -5.363  0.0000E+00  0.2222E+00
     -5.310  0.0000E+00  0.2222E+00
     -5.258  0.0000E+00  0.2222E+00
     -5.206  0.0000E+00  0.2222E+00
     -5.153  0.0000E+00  0.2222E+00
     -5.101  0.0000E+00  0.2222E+00
     -5.048  0.0000E+00  0.2222E+00
     -4.996  0.0000E+00  0.2222E+00
     -4.943  0.0000E+00  0.2222E+00
     -4.891  0.0000E+00  0.2222E+00
     -4.839  0.0000E+00  0.2222E+00
     -4.786  0.0000E+00  0.2222E+00
     -4.734  0.0000E+00  0.2222E+00
     -4.681  0.0000E+00  0.2222E+00
     -4.629  0.0000E+00  0.2222E+00
     -4.577  0.0000E+00  0.2222E+00
     -4.524  0.0000E+00  0.2222E+00
     -4.472  0.0000E+00  0.2222E+00
     -4.419  0.0000E+00  0.2222E+00
     -4.367  0.0000E+00  0.2222E+00
     -4.314  0.0000E+00  0.2222E+00
     -4.262  0.0000E+00  0.2222E+00
     -4.210  0.0000E+00  0.2222E+00
     -4.157  0.0000E+00  0.2222E+00
     -4.105  0.0000E+00  0.2222E+00
     -4.052  0.0000E+00  0.2222E+00
     -4.000  0.0000E+00  0.2222E+00
     -3.948  0.0000E+00  0.2222E+00
     -3.895  0.0000E+00  0.2222E+00
     -3.843  0.0000E+00  0.2222E+00
     -3.790  0.0000E+00  0.2222E+00
     -3.738  0.0000E+00  0.2222E+00
     -3.685  0.0000E+00  0.2222E+00
     -3.633  0.0000E+00  0.2222E+00
     -3.581  0.0000E+00  0.2222E+00
     -3.528  0.0000E+00  0.2222E+00
     -3.476  0.0000E+00  0.2222E+00
     -3.423  0.0000E+00  0.2222E+00
     -3.371  0.0000E+00  0.2222E+00
     -3.319  0.0000E+00  0.2222E+00
     -3.266  0.0000E+00  0.2222E+00
     -3.214  0.0000E+00  0.2222E+00
     -3.161  0.0000E+00  0.2222E+00
     -3.109  0.0000E+00  0.2222E+00
     -3.056  0.0000E+00  0.2222E+00
     -3.004  0.0000E+00  0.2222E+00
     -2.952  0.2076E-12  0.2222E+00
     -2.899  0.5118E-10  0.2222E+00
     -2.847  0.7387E-08  0.2222E+00
     -2.794  0.6218E-06  0.2222E+00
     -2.742  0.3059E-04  0.2222E+00
     -2.690  0.8806E-03  0.2223E+00
     -2.637  0.1487E-01  0.2230E+00
     -2.585  0.1476E+00  0.2308E+00
     -2.532  0.8628E+00  0.2760E+00
     -2.480  0.2976E+01  0.4320E+00
     -2.427  0.6067E+01  0.7500E+00
     -2.375  0.7314E+01  0.1133E+01
     -2.323  0.5217E+01  0.1407E+01
     -2.270  0.2201E+01  0.1522E+01
     -2.218  0.5483E+00  0.1551E+01
     -2.165  0.8058E-01  0.1555E+01
     -2.113  0.6970E-02  0.1556E+01
     -2.061  0.3542E-03  0.1556E+01
     -2.008  0.1055E-04  0.1556E+01
     -1.956  0.1838E-06  0.1556E+01
     -1.903  0.1870E-08  0.1556E+01
     -1.851  0.1110E-10  0.1556E+01
     -1.798  0.3954E-13  0.1556E+01
     -1.746  0.0000E+00  0.1556E+01
     -1.694  0.0000E+00  0.1556E+01
     -1.641  0.0000E+00  0.1556E+01
     -1.589  0.0000E+00  0.1556E+01
     -1.536  0.0000E+00  0.1556E+01
     -1.484  0.0000E+00  0.1556E+01
     -1.432  0.0000E+00  0.1556E+01
     -1.379  0.0000E+00  0.1556E+01
     -1.327  0.0000E+00  0.1556E+01
     -1.274  0.0000E+00  0.1556E+01
     -1.222  0.0000E+00  0.1556E+01
     -1.169  0.0000E+00  0.1556E+01
     -1.117  0.0000E+00  0.1556E+01
     -1.065  0.0000E+00  0.1556E+01
     -1.012  0.0000E+00  0.1556E+01
     -0.960  0.0000E+00  0.1556E+01
     -0.907  0.0000E+00  0.1556E+01
     -0.855  0.0000E+00  0.1556E+01
     -0.803  0.0000E+00  0.1556E+01
     -0.750  0.0000E+00  0.1556E+01
     -0.698  0.0000E+00  0.1556E+01
     -0.645  0.0000E+00  0.1556E+01
     -0.593  0.0000E+00  0.1556E+01
     -0.540  0.0000E+00  0.1556E+01
     -0.488  0.0000E+00  0.1556E+01
     -0.436  0.0000E+00  0.1556E+01
     -0.383  0.0000E+00  0.1556E+01
     -0.331  0.0000E+00  0.1556E+01
     -0.278  0.0000E+00  0.1556E+01
     -0.226  0.0000E+00  0.1556E+01
     -0.173  0.0000E+00  0.1556E+01
     -0.121  0.0000E+00  0.1556E+01
     -0.069  0.0000E+00  0.1556E+01
     -0.016  0.0000E+00  0.1556E+01
      0.036  0.0000E+00  0.1556E+01
      0.089  0.0000E+00  0.1556E+01
      0.141  0.0000E+00  0.1556E+01
      0.193  0.0000E+00  0.1556E+01
      0.246  0.0000E+00  0.1556E+01
      0.298  0.0000E+00  0.1556E+01
      0.351  0.0000E+00  0.1556E+01
      0.403  0.0000E+00  0.1556E+01
      0.456  0.0000E+00  0.1556E+01
      0.508  0.0000E+00  0.1556E+01
      0.560  0.0000E+00  0.1556E+01
      0.613  0.0000E+00  0.1556E+01
      0.665  0.0000E+00  0.1556E+01
      0.718  0.0000E+00  0.1556E+01
      0.770  0.0000E+00  0.1556E+01
      0.822  0.0000E+00  0.1556E+01
      0.875  0.0000E+00  0.1556E+01
      0.927  0.0000E+00  0.1556E+01
      0.980  0.0000E+00  0.1556E+01
      1.032  0.0000E+00  0.1556E+01
      1.085  0.0000E+00  0.1556E+01
      1.137  0.0000E+00  0.1556E+01
      1.189  0.0000E+00  0.1556E+01
      1.242  0.0000E+00  0.1556E+01
      1.294  0.0000E+00  0.1556E+01
      1.347  0.0000E+00  0.1556E+01
      1.399  0.0000E+00  0.1556E+01
      1.451  0.0000E+00  0.1556E+01
      1.504  0.0000E+00  0.1556E+01
      1.556  0.0000E+00  0.1556E+01
      1.609  0.0000E+00  0.1556E+01
      1.661  0.0000E+00  0.1556E+01
      1.714  0.0000E+00  0.1556E+01
      1.766  0.0000E+00  0.1556E+01
      1.818  0.0000E+00  0.1556E+01
      1.871  0.0000E+00  0.1556E+01
      1.923  0.1172E-12  0.1556E+01
      1.976  0.3041E-10  0.1556E+01
      2.028  0.4629E-08  0.1556E+01
      2.080  0.4110E-06  0.1556E+01
      2.133  0.2132E-04  0.1556E+01
      2.185  0.6470E-03  0.1556E+01
      2.238  0.1152E-01  0.1556E+01
      2.290  0.1205E+00  0.1563E+01
      2.343  0.7419E+00  0.1601E+01
      2.395  0.2696E+01  0.1743E+01
      2.447  0.5788E+01  0.2046E+01
      2.500  0.7350E+01  0.2431E+01
      2.552  0.5522E+01  0.2721E+01
      2.605  0.2453E+01  0.2849E+01
      2.657  0.6440E+00  0.2883E+01
      2.709  0.9971E-01  0.2888E+01
      2.762  0.9090E-02  0.2889E+01
      2.814  0.4868E-03  0.2889E+01
      2.867  0.1529E-04  0.2889E+01
      2.919  0.2809E-06  0.2889E+01
      2.972  0.3014E-08  0.2889E+01
      3.024  0.1886E-10  0.2889E+01
      3.076  0.6778E-13  0.2889E+01
      3.129  0.0000E+00  0.2889E+01
      3.181  0.0000E+00  0.2889E+01
      3.234  0.0000E+00  0.2889E+01
      3.286  0.0000E+00  0.2889E+01
      3.338  0.0000E+00  0.2889E+01
      3.391  0.0000E+00  0.2889E+01
      3.443  0.0000E+00  0.2889E+01
      3.496  0.0000E+00  0.2889E+01
      3.548  0.0000E+00  0.2889E+01
      3.601  0.0000E+00  0.2889E+01
      3.653  0.0000E+00  0.2889E+01
      3.705  0.0000E+00  0.2889E+01
      3.758  0.0000E+00  0.2889E+01
      3.810  0.0000E+00  0.2889E+01
      3.863  0.0000E+00  0.2889E+01
      3.915  0.0000E+00  0.2889E+01
      3.967  0.0000E+00  0.2889E+01
      4.020  0.0000E+00  0.2889E+01
      4.072  0.0000E+00  0.2889E+01
      4.125  0.0000E+00  0.2889E+01
      4.177  0.0000E+00  0.2889E+01
      4.230  0.0000E+00  0.2889E+01
      4.282  0.0000E+00  0.2889E+01
      4.334  0.0000E+00  0.2889E+01
      4.387  0.0000E+00  0.2889E+01
      4.439  0.0000E+00  0.2889E+01
      4.492  0.0000E+00  0.2889E+01
      4.544  0.2118E-14  0.2889E+01
      4.596  0.6983E-12  0.2889E+01
      4.649  0.1442E-09  0.2889E+01
      4.701  0.1737E-07  0.2889E+01
      4.754  0.1221E-05  0.2889E+01
      4.806  0.5015E-04  0.2889E+01
      4.859  0.1207E-02  0.2889E+01
      4.911  0.1705E-01  0.2890E+01
      4.963  0.1416E+00  0.2897E+01
      5.016  0.6933E+00  0.2934E+01
      5.068  0.2004E+01  0.3039E+01
      5.121  0.3424E+01  0.3218E+01
      5.173  0.3462E+01  0.3400E+01
      5.225  0.2070E+01  0.3508E+01
      5.278  0.7319E+00  0.3546E+01
      5.330  0.1528E+00  0.3554E+01
      5.383  0.1880E-01  0.3555E+01
      5.435  0.1360E-02  0.3556E+01
      5.488  0.5779E-04  0.3556E+01
      5.540  0.1572E-05  0.3556E+01
      5.592  0.8004E-05  0.3556E+01
      5.645  0.2788E-03  0.3556E+01
      5.697  0.5705E-02  0.3556E+01
      5.750  0.6857E-01  0.3559E+01
      5.802  0.4851E+00  0.3585E+01
      5.854  0.2023E+01  0.3691E+01
      5.907  0.4985E+01  0.3952E+01
      5.959  0.7263E+01  0.4333E+01
      6.012  0.6261E+01  0.4661E+01
      6.064  0.3192E+01  0.4829E+01
      6.117  0.9619E+00  0.4879E+01
      6.169  0.1710E+00  0.4888E+01
      6.221  0.1792E-01  0.4889E+01
      6.274  0.1103E-02  0.4889E+01
      6.326  0.3985E-04  0.4889E+01
      6.379  0.8426E-06  0.4889E+01
      6.431  0.1041E-07  0.4889E+01
      6.483  0.7505E-10  0.4889E+01
      6.536  0.3163E-12  0.4889E+01
      6.588  0.0000E+00  0.4889E+01
      6.641  0.0000E+00  0.4889E+01
      6.693  0.0000E+00  0.4889E+01
      6.746  0.2353E-15  0.4889E+01
      6.798  0.5507E-13  0.4889E+01
      6.850  0.1307E-10  0.4889E+01
      6.903  0.1805E-08  0.4889E+01
      6.955  0.1454E-06  0.4889E+01
      7.008  0.6847E-05  0.4889E+01
      7.060  0.1887E-03  0.4889E+01
      7.112  0.3051E-02  0.4889E+01
      7.165  0.2899E-01  0.4891E+01
      7.217  0.1624E+00  0.4899E+01
      7.270  0.5373E+00  0.4927E+01
      7.322  0.1061E+01  0.4983E+01
      7.375  0.1322E+01  0.5052E+01
      7.427  0.1352E+01  0.5123E+01
      7.479  0.1775E+01  0.5216E+01
      7.532  0.2419E+01  0.5343E+01
      7.584  0.2257E+01  0.5461E+01
      7.637  0.1276E+01  0.5528E+01
      7.689  0.4282E+00  0.5551E+01
      7.742  0.8486E-01  0.5555E+01
      7.794  0.9910E-02  0.5556E+01
      7.846  0.6807E-03  0.5556E+01
      7.899  0.2744E-04  0.5556E+01
      7.951  0.6477E-06  0.5556E+01
      8.004  0.8938E-08  0.5556E+01
      8.056  0.7198E-10  0.5556E+01
      8.108  0.3379E-12  0.5556E+01
      8.161  0.9414E-15  0.5556E+01
      8.213  0.0000E+00  0.5556E+01
      8.266  0.0000E+00  0.5556E+01
      8.318  0.0000E+00  0.5556E+01
      8.371  0.0000E+00  0.5556E+01
      8.423  0.0000E+00  0.5556E+01
      8.475  0.0000E+00  0.5556E+01
      8.528  0.0000E+00  0.5556E+01
