       N       E                     dE             d eps       ncg     rms          rms(c)
DAV:   1     0.293801959995E+02    0.29380E+02   -0.76707E+03    50   0.545E+02
DAV:   2    -0.304731291727E+02   -0.59853E+02   -0.55146E+02    60   0.103E+02
DAV:   3    -0.343963788469E+02   -0.39232E+01   -0.35324E+01    55   0.226E+01    0.125E+01
DAV:   4    -0.334482424822E+02    0.94814E+00   -0.17956E+00    55   0.528E+00    0.763E+00
DAV:   5    -0.330135260402E+02    0.43472E+00   -0.12123E+00    60   0.450E+00    0.592E-01
DAV:   6    -0.330379929254E+02   -0.24467E-01   -0.46946E-02    50   0.888E-01    0.228E-01
DAV:   7    -0.330458029271E+02   -0.78100E-02   -0.55589E-03    60   0.372E-01    0.134E-01
DAV:   8    -0.330465913187E+02   -0.78839E-03   -0.73821E-04    55   0.147E-01    0.642E-02
DAV:   9    -0.330466085623E+02   -0.17244E-04   -0.57858E-05    40   0.362E-02
   1 F= -.33046609E+02 E0= -.33046588E+02  d E =-.330466E+02
       N       E                     dE             d eps       ncg     rms          rms(c)
DAV:   1    -0.333891544350E+02   -0.34256E+00   -0.81921E+01    50   0.330E+01
DAV:   2    -0.335381408127E+02   -0.14899E+00   -0.14896E+00    50   0.520E+00
DAV:   3    -0.335411262095E+02   -0.29854E-02   -0.29854E-02    50   0.715E-01    0.910E+00
DAV:   4    -0.319112787225E+02    0.16298E+01   -0.65692E-01    50   0.283E+00    0.481E+00
DAV:   5    -0.310172473544E+02    0.89403E+00   -0.12474E+00    50   0.396E+00    0.151E+00
DAV:   6    -0.310308872586E+02   -0.13640E-01   -0.49025E-02    50   0.770E-01    0.351E-01
DAV:   7    -0.316992650947E+02   -0.66838E+00   -0.76663E-03    60   0.339E-01    0.178E+00
DAV:   8    -0.317225942597E+02   -0.23329E-01   -0.25871E-01    50   0.717E-01    0.192E+00
DAV:   9    -0.317215753881E+02    0.10189E-02   -0.66049E-04    40   0.785E-02    0.193E+00
DAV:  10    -0.317089852907E+02    0.12590E-01   -0.30771E-03    50   0.214E-01    0.175E+00
DAV:  11    -0.316882066709E+02    0.20779E-01   -0.87742E-03    50   0.393E-01    0.164E+00
DAV:  12    -0.316833995448E+02    0.48071E-02   -0.10488E-03    50   0.139E-01    0.169E+00
DAV:  13    -0.316829466574E+02    0.45289E-03   -0.26226E-05    25   0.232E-02    0.173E+00
DAV:  14    -0.316785409170E+02    0.44057E-02   -0.37717E-04    50   0.747E-02    0.201E+00
DAV:  15    -0.316795949266E+02   -0.10540E-02   -0.27619E-05    25   0.213E-02    0.195E+00
DAV:  16    -0.316936897239E+02   -0.14095E-01   -0.37508E-03    50   0.233E-01    0.169E+00
DAV:  17    -0.317009207594E+02   -0.72310E-02   -0.81565E-04    50   0.109E-01    0.174E+00
DAV:  18    -0.316996051952E+02    0.13156E-02   -0.37445E-05    25   0.267E-02    0.172E+00
DAV:  19    -0.316991813931E+02    0.42380E-03   -0.73770E-06    25   0.142E-02    0.171E+00
DAV:  20    -0.316919881182E+02    0.71933E-02   -0.17314E-03    50   0.207E-01    0.142E+00
DAV:  21    -0.316833197952E+02    0.86683E-02   -0.52820E-03    50   0.373E-01    0.999E-01
DAV:  22    -0.316803069405E+02    0.30129E-02   -0.20115E-03    60   0.218E-01    0.895E-01
DAV:  23    -0.316793766767E+02    0.93026E-03   -0.10118E-03    50   0.150E-01    0.783E-01
DAV:  24    -0.316794257461E+02   -0.49069E-04   -0.13785E-03    60   0.169E-01    0.393E-01
DAV:  25    -0.316795954550E+02   -0.16971E-03   -0.12005E-04    40   0.581E-02    0.136E-01
DAV:  26    -0.316795294901E+02    0.65965E-04   -0.22268E-05    25   0.220E-02
   2 F= -.31679529E+02 E0= -.31602357E+02  d E =0.136708E+01
       N       E                     dE             d eps       ncg     rms          rms(c)
DAV:   1    -0.318087103017E+02   -0.12911E+00   -0.15404E+00    50   0.366E+00
DAV:   2    -0.318114907610E+02   -0.27805E-02   -0.27805E-02    50   0.529E-01
DAV:   3    -0.318115106190E+02   -0.19858E-04   -0.19859E-04    35   0.598E-02    0.179E+00
DAV:   4    -0.317615344029E+02    0.49976E-01   -0.22627E-02    50   0.582E-01    0.840E-01
DAV:   5    -0.317417614174E+02    0.19773E-01   -0.24499E-02    50   0.594E-01    0.325E-01
DAV:   6    -0.317415642738E+02    0.19714E-03   -0.87555E-04    50   0.119E-01    0.935E-02
DAV:   7    -0.317414973574E+02    0.66916E-04   -0.38294E-05    25   0.309E-02
   3 F= -.31741497E+02 E0= -.31655722E+02  d E =0.130511E+01
       N       E                     dE             d eps       ncg     rms          rms(c)
DAV:   1    -0.334523375427E+02   -0.17108E+01   -0.14837E+01    50   0.128E+01
DAV:   2    -0.334883875807E+02   -0.36050E-01   -0.36050E-01    50   0.189E+00
DAV:   3    -0.334886150987E+02   -0.22752E-03   -0.22752E-03    50   0.209E-01    0.392E+00
DAV:   4    -0.332242843080E+02    0.26433E+00   -0.10587E-01    50   0.123E+00    0.198E+00
DAV:   5    -0.330849017642E+02    0.13938E+00   -0.17144E-01    50   0.155E+00    0.968E-01
DAV:   6    -0.330823560918E+02    0.25457E-02   -0.84300E-03    50   0.383E-01    0.314E-01
DAV:   7    -0.330821747256E+02    0.18137E-03   -0.32939E-04    50   0.854E-02    0.127E-01
DAV:   8    -0.330821815546E+02   -0.68290E-05   -0.18649E-05    25   0.212E-02
   4 F= -.33082182E+02 E0= -.33082182E+02  d E =-.355730E-01
       N       E                     dE             d eps       ncg     rms          rms(c)
DAV:   1    -0.337950039674E+02   -0.71283E+00   -0.79964E+00    50   0.115E+01
DAV:   2    -0.338226258218E+02   -0.27622E-01   -0.27622E-01    50   0.173E+00
DAV:   3    -0.338227789700E+02   -0.15315E-03   -0.15315E-03    50   0.182E-01    0.313E+00
DAV:   4    -0.336778591465E+02    0.14492E+00   -0.57237E-02    50   0.901E-01    0.153E+00
DAV:   5    -0.335970732298E+02    0.80786E-01   -0.94191E-02    50   0.115E+00    0.595E-01
DAV:   6    -0.335959988581E+02    0.10744E-02   -0.50637E-03    50   0.302E-01    0.241E-01
DAV:   7    -0.335958545903E+02    0.14427E-03   -0.29639E-04    50   0.764E-02    0.103E-01
DAV:   8    -0.335958586189E+02   -0.40287E-05   -0.25733E-05    25   0.269E-02
   5 F= -.33595859E+02 E0= -.33595859E+02  d E =-.549250E+00
       N       E                     dE             d eps       ncg     rms          rms(c)
DAV:   1    -0.335968777376E+02   -0.10231E-02   -0.10857E-02    50   0.420E-01
DAV:   2    -0.335969095502E+02   -0.31813E-04   -0.31812E-04    35   0.624E-02
DAV:   3    -0.335969098689E+02   -0.31869E-06   -0.31899E-06    25   0.972E-03    0.116E-01
DAV:   4    -0.335967155168E+02    0.19435E-03   -0.73312E-05    25   0.330E-02    0.619E-02
DAV:   5    -0.335966131037E+02    0.10241E-03   -0.15265E-04    25   0.494E-02    0.174E-02
DAV:   6    -0.335966211713E+02   -0.80676E-05   -0.20176E-05    25   0.223E-02
   6 F= -.33596621E+02 E0= -.33596621E+02  d E =-.550013E+00
