 vasp.5.4.1 05Feb16 (build Feb 24 2020 14:33:01) complex                        
  
 executed on           IFC91_ompi date 2020.02.27  21:36:49
 running on   40 total cores
 distrk:  each k-point on   40 cores,    1 groups
 distr:  one band on NCORES_PER_BAND=   8 cores,    5 groups


--------------------------------------------------------------------------------------------------------


 INCAR:
 POTCAR:    PAW_PBE Si 05Jan2001                  
 POTCAR:    PAW_PBE Si 05Jan2001                  
   VRHFIN =Si: s2p2                                                             
   LEXCH  = PE                                                                  
   EATOM  =   103.0669 eV,    7.5752 Ry                                         
                                                                                
   TITEL  = PAW_PBE Si 05Jan2001                                                
   LULTRA =        F    use ultrasoft PP ?                                      
   IUNSCR =        1    unscreen: 0-lin 1-nonlin 2-no                           
   RPACOR =    1.500    partial core radius                                     
   POMASS =   28.085; ZVAL   =    4.000    mass and valenz                      
   RCORE  =    1.900    outmost cutoff radius                                   
   RWIGS  =    2.480; RWIGS  =    1.312    wigner-seitz radius (au A)           
   ENMAX  =  245.345; ENMIN  =  184.009 eV                                      
   ICORE  =        2    local potential                                         
   LCOR   =        T    correct aug charges                                     
   LPAW   =        T    paw PP                                                  
   EAUG   =  322.069                                                            
   DEXC   =    0.000                                                            
   RMAX   =    1.950    core radius for proj-oper                               
   RAUG   =    1.300    factor for augmentation sphere                          
   RDEP   =    1.993    radius for radial grids                                 
   RDEPT  =    1.837    core radius for aug-charge                              
                                                                                
   Atomic configuration                                                         
    6 entries                                                                   
     n  l   j            E        occ.                                          
     1  0  0.50     -1785.8828   2.0000                                         
     2  0  0.50      -139.4969   2.0000                                         
     2  1  1.50       -95.5546   6.0000                                         
     3  0  0.50       -10.8127   2.0000                                         
     3  1  0.50        -4.0811   2.0000                                         
     3  2  1.50        -4.0817   0.0000                                         
   Description                                                                  
     l       E           TYP  RCUT    TYP  RCUT                                 
     0    -10.8127223     23  1.900                                             
     0     -7.6451159     23  1.900                                             
     1     -4.0811372     23  1.900                                             
     1      2.4879257     23  1.900                                             
     2     -4.0817478      7  1.900                                             
  local pseudopotential read in
  partial core-charges read in
  partial kinetic energy density read in
  atomic valenz-charges read in
  non local Contribution for L=           0  read in
    real space projection operators read in
  non local Contribution for L=           0  read in
    real space projection operators read in
  non local Contribution for L=           1  read in
    real space projection operators read in
  non local Contribution for L=           1  read in
    real space projection operators read in
    PAW grid and wavefunctions read in
 
   number of l-projection  operators is LMAX  =           4
   number of lm-projection operators is LMMAX =           8
 
  PAW_PBE Si 05Jan2001                  :
 energy of atom  1       EATOM= -103.0669
 kinetic energy error for atom=    0.0061 (will be added to EATOM!!)
 
 
 POSCAR: Si dia                                  
  positions in direct lattice
  No initial velocities read in
 exchange correlation table for  LEXCH =        8
   RHO(1)=    0.500       N(1)  =     2000
   RHO(2)=  100.500       N(2)  =     4000
 


--------------------------------------------------------------------------------------------------------


 ion  position               nearest neighbor table
   1  0.000  0.000  0.000-   5 2.35   6 2.35   7 2.35   8 2.35
   2  0.000  0.500  0.500-   5 2.35   6 2.35   7 2.35   8 2.35
   3  0.500  0.000  0.500-   5 2.35   6 2.35   7 2.35   8 2.35
   4  0.500  0.500  0.000-   5 2.35   6 2.35   7 2.35   8 2.35
   5  0.250  0.250  0.250-   1 2.35   2 2.35   3 2.35   4 2.35
   6  0.750  0.750  0.250-   1 2.35   2 2.35   3 2.35   4 2.35
   7  0.750  0.250  0.750-   1 2.35   2 2.35   3 2.35   4 2.35
   8  0.250  0.750  0.750-   1 2.35   2 2.35   3 2.35   4 2.35
 
  LATTYP: Found a simple cubic cell.
 ALAT       =     5.4310000000
  
  Lattice vectors:
  
 A1 = (   5.4310000000,   0.0000000000,   0.0000000000)
 A2 = (   0.0000000000,   5.4310000000,   0.0000000000)
 A3 = (   0.0000000000,   0.0000000000,   5.4310000000)


Analysis of symmetry for initial positions (statically):
=====================================================================
 Subroutine PRICEL returns following result:
 
  LATTYP: Found a face centered cubic cell.
 ALAT       =     5.4310000000
  
  Lattice vectors:
  
 A1 = (   2.7155000000,   2.7155000000,   0.0000000000)
 A2 = (   2.7155000000,   0.0000000000,  -2.7155000000)
 A3 = (   0.0000000000,   2.7155000000,  -2.7155000000)
 
   4 primitive cells build up your supercell.
 

 Routine SETGRP: Setting up the symmetry group for a 
 simple cubic supercell.


 Subroutine GETGRP returns: Found 48 space group operations
 (whereof 24 operations were pure point group operations)
 out of a pool of 48 trial point group operations.


The static configuration has the point symmetry T_d .
 The point group associated with its full space group is O_h .


Analysis of symmetry for dynamics (positions and initial velocities):
=====================================================================
 Subroutine PRICEL returns following result:
 
  LATTYP: Found a face centered cubic cell.
 ALAT       =     5.4310000000
  
  Lattice vectors:
  
 A1 = (   2.7155000000,   2.7155000000,   0.0000000000)
 A2 = (   2.7155000000,   0.0000000000,  -2.7155000000)
 A3 = (   0.0000000000,   2.7155000000,  -2.7155000000)
 
   4 primitive cells build up your supercell.
 

 Routine SETGRP: Setting up the symmetry group for a 
 simple cubic supercell.


 Subroutine GETGRP returns: Found 48 space group operations
 (whereof 24 operations were pure point group operations)
 out of a pool of 48 trial point group operations.


The dynamic configuration has the point symmetry T_d .
 The point group associated with its full space group is O_h .


 Subroutine INISYM returns: Found 48 space group operations
 (whereof 24 operations are pure point group operations),
 and found     4 'primitive' translations

 
 
 KPOINTS: k-points                                

Automatic generation of k-mesh.
Space group operators:
 irot       det(A)        alpha          n_x          n_y          n_z        tau_x        tau_y        tau_z
    1     1.000000     0.000001     1.000000     0.000000     0.000000     0.000000     0.000000     0.000000
    2     1.000000   120.000000    -0.577350    -0.577350    -0.577350     0.000000     0.000000     0.000000
    3     1.000000   120.000000     0.577350     0.577350     0.577350     0.000000     0.000000     0.000000
    4    -1.000000    90.000000     0.000000     0.000000    -1.000000     0.000000     0.000000     0.000000
    5    -1.000000   180.000000     0.000000     0.707107     0.707107     0.000000     0.000000     0.000000
    6    -1.000000    90.000000     0.000000     1.000000     0.000000     0.000000     0.000000     0.000000
    7     1.000000   180.000000     0.000000     0.000000     1.000000     0.000000     0.000000     0.000000
    8     1.000000   120.000000    -0.577350     0.577350     0.577350     0.000000     0.000000     0.000000
    9     1.000000   120.000000    -0.577350     0.577350    -0.577350     0.000000     0.000000     0.000000
   10    -1.000000    90.000000     0.000000     0.000000     1.000000     0.000000     0.000000     0.000000
   11    -1.000000    90.000000    -1.000000     0.000000     0.000000     0.000000     0.000000     0.000000
   12    -1.000000   180.000000     0.707107     0.000000     0.707107     0.000000     0.000000     0.000000
   13     1.000000   120.000000     0.577350    -0.577350     0.577350     0.000000     0.000000     0.000000
   14     1.000000   120.000000    -0.577350    -0.577350     0.577350     0.000000     0.000000     0.000000
   15     1.000000   180.000000     1.000000     0.000000     0.000000     0.000000     0.000000     0.000000
   16    -1.000000    90.000000     0.000000    -1.000000     0.000000     0.000000     0.000000     0.000000
   17    -1.000000   180.000000     0.707107     0.707107     0.000000     0.000000     0.000000     0.000000
   18    -1.000000    90.000000     1.000000     0.000000     0.000000     0.000000     0.000000     0.000000
   19     1.000000   120.000000     0.577350    -0.577350    -0.577350     0.000000     0.000000     0.000000
   20     1.000000   180.000000     0.000000     1.000000     0.000000     0.000000     0.000000     0.000000
   21     1.000000   120.000000     0.577350     0.577350    -0.577350     0.000000     0.000000     0.000000
   22    -1.000000   180.000000     0.000000    -0.707107     0.707107     0.000000     0.000000     0.000000
   23    -1.000000   180.000000     0.707107    -0.707107     0.000000     0.000000     0.000000     0.000000
   24    -1.000000   180.000000     0.707107     0.000000    -0.707107     0.000000     0.000000     0.000000
   25    -1.000000     0.000001     1.000000     0.000000     0.000000     0.750000     0.750000    -0.750000
   26    -1.000000   120.000000    -0.577350    -0.577350    -0.577350     0.750000     0.750000    -0.750000
   27    -1.000000   120.000000     0.577350     0.577350     0.577350     0.750000     0.750000    -0.750000
   28     1.000000    90.000000     0.000000     0.000000    -1.000000     0.750000     0.750000    -0.750000
   29     1.000000   180.000000     0.000000     0.707107     0.707107     0.750000     0.750000    -0.750000
   30     1.000000    90.000000     0.000000     1.000000     0.000000     0.750000     0.750000    -0.750000
   31    -1.000000   180.000000     0.000000     0.000000     1.000000     0.750000     0.750000    -0.750000
   32    -1.000000   120.000000    -0.577350     0.577350     0.577350     0.750000     0.750000    -0.750000
   33    -1.000000   120.000000    -0.577350     0.577350    -0.577350     0.750000     0.750000    -0.750000
   34     1.000000    90.000000     0.000000     0.000000     1.000000     0.750000     0.750000    -0.750000
   35     1.000000    90.000000    -1.000000     0.000000     0.000000     0.750000     0.750000    -0.750000
   36     1.000000   180.000000     0.707107     0.000000     0.707107     0.750000     0.750000    -0.750000
   37    -1.000000   120.000000     0.577350    -0.577350     0.577350     0.750000     0.750000    -0.750000
   38    -1.000000   120.000000    -0.577350    -0.577350     0.577350     0.750000     0.750000    -0.750000
   39    -1.000000   180.000000     1.000000     0.000000     0.000000     0.750000     0.750000    -0.750000
   40     1.000000    90.000000     0.000000    -1.000000     0.000000     0.750000     0.750000    -0.750000
   41     1.000000   180.000000     0.707107     0.707107     0.000000     0.750000     0.750000    -0.750000
   42     1.000000    90.000000     1.000000     0.000000     0.000000     0.750000     0.750000    -0.750000
   43    -1.000000   120.000000     0.577350    -0.577350    -0.577350     0.750000     0.750000    -0.750000
   44    -1.000000   180.000000     0.000000     1.000000     0.000000     0.750000     0.750000    -0.750000
   45    -1.000000   120.000000     0.577350     0.577350    -0.577350     0.750000     0.750000    -0.750000
   46     1.000000   180.000000     0.000000    -0.707107     0.707107     0.750000     0.750000    -0.750000
   47     1.000000   180.000000     0.707107    -0.707107     0.000000     0.750000     0.750000    -0.750000
   48     1.000000   180.000000     0.707107     0.000000    -0.707107     0.750000     0.750000    -0.750000
 
 Subroutine IBZKPT returns following result:
 ===========================================
 
 Found      1 irreducible k-points:
 
 Following reciprocal coordinates:
            Coordinates               Weight
  0.000000  0.000000  0.000000      1.000000
 
 Following cartesian coordinates:
            Coordinates               Weight
  0.000000  0.000000  0.000000      1.000000
 


--------------------------------------------------------------------------------------------------------




 Dimension of arrays:
   k-points           NKPTS =      1   k-points in BZ     NKDIM =      1   number of bands    NBANDS=     25
   number of dos      NEDOS =    301   number of ions     NIONS =      8
   non local maximal  LDIM  =      4   non local SUM 2l+1 LMDIM =      8
   total plane-waves  NPLWV =  21952
   max r-space proj   IRMAX =      1   max aug-charges    IRDMAX=   4781
   dimension x,y,z NGX =    28 NGY =   28 NGZ =   28
   dimension x,y,z NGXF=    56 NGYF=   56 NGZF=   56
   support grid    NGXF=    56 NGYF=   56 NGZF=   56
   ions per type =               8
 NGX,Y,Z   is equivalent  to a cutoff of   8.57,  8.57,  8.57 a.u.
 NGXF,Y,Z  is equivalent  to a cutoff of  17.14, 17.14, 17.14 a.u.


 I would recommend the setting:
   dimension x,y,z NGX =    27 NGY =   27 NGZ =   27
 SYSTEM =  diamond Si                              
 POSCAR =  Si dia                                  

 Startparameter for this run:
   NWRITE =      2    write-flag & timer
   PREC   = accura    normal or accurate (medium, high low for compatibility)
   ISTART =      0    job   : 0-new  1-cont  2-samecut
   ICHARG =      2    charge: 1-file 2-atom 10-const
   ISPIN  =      1    spin polarized calculation?
   LNONCOLLINEAR =      F non collinear calculations
   LSORBIT =      F    spin-orbit coupling
   INIWAV =      1    electr: 0-lowe 1-rand  2-diag
   LASPH  =      F    aspherical Exc in radial PAW
   METAGGA=      F    non-selfconsistent MetaGGA calc.

 Electronic Relaxation 1
   ENCUT  =  240.0 eV  17.64 Ry    4.20 a.u.   6.86  6.86  6.86*2*pi/ulx,y,z
   ENINI  =  240.0     initial cutoff
   ENAUG  =  322.1 eV  augmentation charge cutoff
   NELM   =     60;   NELMIN=  0; NELMDL=  3     # of ELM steps 
   EDIFF  = 0.1E-03   stopping-criterion for ELM
   LREAL  =      F    real-space projection
   NLSPLINE    = F    spline interpolate recip. space projectors
   LCOMPAT=      F    compatible to vasp.4.4
   GGA_COMPAT  = T    GGA compatible to vasp.4.4-vasp.4.6
   LMAXPAW     = -100 max onsite density
   LMAXMIX     =    2 max onsite mixed and CHGCAR
   VOSKOWN=      0    Vosko Wilk Nusair interpolation
   ROPT   =    0.00000
 Ionic relaxation
   EDIFFG = -.1E-01   stopping-criterion for IOM
   NSW    =      9    number of steps for IOM
   NBLOCK =      1;   KBLOCK =      9    inner block; outer block 
   IBRION =      2    ionic relax: 0-MD 1-quasi-New 2-CG
   NFREE  =      1    steps in history (QN), initial steepest desc. (CG)
   ISIF   =      3    stress and relaxation
   IWAVPR =     11    prediction:  0-non 1-charg 2-wave 3-comb
   ISYM   =      2    0-nonsym 1-usesym 2-fastsym
   LCORR  =      T    Harris-Foulkes like correction to forces

   POTIM  = 1.0000    time-step for ionic-motion
   TEIN   =    0.0    initial temperature
   TEBEG  =    0.0;   TEEND  =   0.0 temperature during run
   SMASS  =  -3.00    Nose mass-parameter (am)
   estimated Nose-frequenzy (Omega)   =  0.10E-29 period in steps =****** mass=  -0.674E-27a.u.
   SCALEE = 1.0000    scale energy and forces
   NPACO  =    256;   APACO  = 16.0  distance and # of slots for P.C.
   PSTRESS=    0.0 pullay stress

  Mass of Ions in am
   POMASS =  28.09
  Ionic Valenz
   ZVAL   =   4.00
  Atomic Wigner-Seitz radii
   RWIGS  =  -1.00
  virtual crystal weights 
   VCA    =   1.00
   NELECT =      32.0000    total number of electrons
   NUPDOWN=      -1.0000    fix difference up-down

 DOS related values:
   EMIN   =  10.00;   EMAX   =-10.00  energy-range for DOS
   EFERMI =   0.00
   ISMEAR =     0;   SIGMA  =   0.10  broadening in eV -4-tet -1-fermi 0-gaus

 Electronic relaxation 2 (details)
   IALGO  =     38    algorithm
   LDIAG  =      T    sub-space diagonalisation (order eigenvalues)
   LSUBROT=      F    optimize rotation matrix (better conditioning)
   TURBO    =      0    0=normal 1=particle mesh
   IRESTART =      0    0=no restart 2=restart with 2 vectors
   NREBOOT  =      0    no. of reboots
   NMIN     =      0    reboot dimension
   EREF     =   0.00    reference energy to select bands
   IMIX   =      4    mixing-type and parameters
     AMIX     =   0.40;   BMIX     =  1.00
     AMIX_MAG =   1.60;   BMIX_MAG =  1.00
     AMIN     =   0.10
     WC   =   100.;   INIMIX=   1;  MIXPRE=   1;  MAXMIX= -45

 Intra band minimization:
   WEIMIN = 0.0010     energy-eigenvalue tresh-hold
   EBREAK =  0.10E-05  absolut break condition
   DEPER  =   0.30     relativ break condition  

   TIME   =   0.40     timestep for ELM

  volume/ion in A,a.u.               =      20.02       135.13
  Fermi-wavevector in a.u.,A,eV,Ry     =   0.956999  1.808467 12.460868  0.915848
  Thomas-Fermi vector in A             =   2.085978
 
 Write flags
   LWAVE  =      T    write WAVECAR
   LCHARG =      T    write CHGCAR
   LVTOT  =      F    write LOCPOT, total local potential
   LVHAR  =      F    write LOCPOT, Hartree potential only
   LELF   =      F    write electronic localiz. function (ELF)
   LORBIT =      0    0 simple, 1 ext, 2 COOP (PROOUT)


 Dipole corrections
   LMONO  =      F    monopole corrections only (constant potential shift)
   LDIPOL =      F    correct potential (dipole corrections)
   IDIPOL =      0    1-x, 2-y, 3-z, 4-all directions 
   EPSILON=  1.0000000 bulk dielectric constant

 Exchange correlation treatment:
   GGA     =    --    GGA type
   LEXCH   =     8    internal setting for exchange type
   VOSKOWN=      0    Vosko Wilk Nusair interpolation
   LHFCALC =     F    Hartree Fock is set to
   LHFONE  =     F    Hartree Fock one center treatment
   AEXX    =    0.0000 exact exchange contribution

 Linear response parameters
   LEPSILON=     F    determine dielectric tensor
   LRPA    =     F    only Hartree local field effects (RPA)
   LNABLA  =     F    use nabla operator in PAW spheres
   LVEL    =     F    velocity operator in full k-point grid
   LINTERFAST=   F  fast interpolation
   KINTER  =     0    interpolate to denser k-point grid
   CSHIFT  =0.1000    complex shift for real part using Kramers Kronig
   OMEGAMAX=  -1.0    maximum frequency
   DEG_THRESHOLD= 0.2000000E-02 threshold for treating states as degnerate
   RTIME   =    0.100 relaxation time in fs

 Orbital magnetization related:
   ORBITALMAG=     F  switch on orbital magnetization
   LCHIMAG   =     F  perturbation theory with respect to B field
   DQ        =  0.001000  dq finite difference perturbation B field



--------------------------------------------------------------------------------------------------------


 conjugate gradient relaxation of ions
 charge density and potential will be updated during run
 non-spin polarized calculation
 Variant of blocked Davidson
 Davidson routine will perform the subspace rotation
 perform sub-space diagonalisation
    after iterative eigenvector-optimisation
 modified Broyden-mixing scheme, WC =      100.0
 initial mixing is a Kerker type mixing with AMIX =  0.4000 and BMIX =      1.0000
 Hartree-type preconditioning will be used
 using additional bands            9
 reciprocal scheme for non local part
 use partial core corrections
 calculate Harris-corrections to forces 
   (improved forces if not selfconsistent)
 use gradient corrections 
 use of overlap-Matrix (Vanderbilt PP)
 Gauss-broadening in eV      SIGMA  =   0.10


--------------------------------------------------------------------------------------------------------


  energy-cutoff  :      240.00
  volume of cell :      160.19
      direct lattice vectors                 reciprocal lattice vectors
     5.431000000  0.000000000  0.000000000     0.184128153  0.000000000  0.000000000
     0.000000000  5.431000000  0.000000000     0.000000000  0.184128153  0.000000000
     0.000000000  0.000000000  5.431000000     0.000000000  0.000000000  0.184128153

  length of vectors
     5.431000000  5.431000000  5.431000000     0.184128153  0.184128153  0.184128153


 
 k-points in units of 2pi/SCALE and weight: k-points                                
   0.00000000  0.00000000  0.00000000       1.000
 
 k-points in reciprocal lattice and weights: k-points                                
   0.00000000  0.00000000  0.00000000       1.000
 
 position of ions in fractional coordinates (direct lattice) 
   0.00000000  0.00000000  0.00000000
   0.00000000  0.50000000  0.50000000
   0.50000000  0.00000000  0.50000000
   0.50000000  0.50000000  0.00000000
   0.25000000  0.25000000  0.25000000
   0.75000000  0.75000000  0.25000000
   0.75000000  0.25000000  0.75000000
   0.25000000  0.75000000  0.75000000
 
 position of ions in cartesian coordinates  (Angst):
   0.00000000  0.00000000  0.00000000
   0.00000000  2.71550000  2.71550000
   2.71550000  0.00000000  2.71550000
   2.71550000  2.71550000  0.00000000
   1.35775000  1.35775000  1.35775000
   4.07325000  4.07325000  1.35775000
   4.07325000  1.35775000  4.07325000
   1.35775000  4.07325000  4.07325000
 


--------------------------------------------------------------------------------------------------------


 k-point  1 :   0.0000 0.0000 0.0000  plane waves:    1357

 maximum and minimum number of plane-waves per node :       175      166

 maximum number of plane-waves:      1357
 maximum index in each direction: 
   IXMAX=    6   IYMAX=    6   IZMAX=    6
   IXMIN=   -6   IYMIN=   -6   IZMIN=   -6

 NGX is ok and might be reduce to  26
 NGY is ok and might be reduce to  26
 NGZ is ok and might be reduce to  26

 total amount of memory used by VASP on root node    30622. kBytes
========================================================================

   base      :      30000. kBytes
   nonl-proj :         33. kBytes
   fftplans  :        243. kBytes
   grid      :        329. kBytes
   one-center:          3. kBytes
   wavefun   :         14. kBytes
 
     INWAV:  cpu time    0.0000: real time    0.0000
 Broyden mixing: mesh for mixing (old mesh)
   NGX = 13   NGY = 13   NGZ = 13
  (NGX  = 56   NGY  = 56   NGZ  = 56)
  gives a total of   2197 points

 initial charge density was supplied:
 charge density of overlapping atoms calculated
 number of electron      32.0000000 magnetization 
 keeping initial charge density in first step


--------------------------------------------------------------------------------------------------------


 Maximum index for augmentation-charges          125 (set IRDMAX)


--------------------------------------------------------------------------------------------------------


 First call to EWALD:  gamma=   0.326
 Maximum number of real-space cells 3x 3x 3
 Maximum number of reciprocal cells 3x 3x 3

 FEWALD executed in parallel
    FEWALD:  cpu time    0.0012: real time    0.0012


----------------------------------------- Iteration    1(   1)  ---------------------------------------


    POTLOK:  cpu time    0.0103: real time    0.0114
    SETDIJ:  cpu time    0.0014: real time    0.0016
     EDDAV:  cpu time    0.1858: real time    0.2002
       DOS:  cpu time    0.0002: real time    0.0002
    --------------------------------------------
      LOOP:  cpu time    0.1989: real time    0.2173

 eigenvalue-minimisations  :    50
 total energy-change (2. order) : 0.2938020E+02  (-0.7670711E+03)
 number of electron      32.0000000 magnetization 
 augmentation part       32.0000000 magnetization 

 Free energy of the ion-electron system (eV)
  ---------------------------------------------------
  alpha Z        PSCENC =        13.44915721
  Ewald energy   TEWEN  =      -914.08579262
  -Hartree energ DENC   =       -44.03749844
  -exchange      EXHF   =         0.00000000
  -V(xc)+E(xc)   XCENC  =       -74.41614067
  PAW double counting   =       704.99039692     -564.24414232
  entropy T*S    EENTRO =        -0.03885717
  eigenvalues    EBANDS =        83.27686046
  atomic energy  EATOM  =       824.48621262
  Solvation  Ediel_sol  =         0.00000000
  ---------------------------------------------------
  free energy    TOTEN  =        29.38019600 eV

  energy without entropy =       29.41905317  energy(sigma->0) =       29.39962458


--------------------------------------------------------------------------------------------------------




----------------------------------------- Iteration    1(   2)  ---------------------------------------


     EDDAV:  cpu time    0.0111: real time    0.0111
       DOS:  cpu time    0.0001: real time    0.0001
    --------------------------------------------
      LOOP:  cpu time    0.0118: real time    0.0259

 eigenvalue-minimisations  :    60
 total energy-change (2. order) :-0.5985333E+02  (-0.5514568E+02)
 number of electron      32.0000000 magnetization 
 augmentation part       32.0000000 magnetization 

 Free energy of the ion-electron system (eV)
  ---------------------------------------------------
  alpha Z        PSCENC =        13.44915721
  Ewald energy   TEWEN  =      -914.08579262
  -Hartree energ DENC   =       -44.03749844
  -exchange      EXHF   =         0.00000000
  -V(xc)+E(xc)   XCENC  =       -74.41614067
  PAW double counting   =       704.99039692     -564.24414232
  entropy T*S    EENTRO =        -0.00002147
  eigenvalues    EBANDS =        23.38469960
  atomic energy  EATOM  =       824.48621262
  Solvation  Ediel_sol  =         0.00000000
  ---------------------------------------------------
  free energy    TOTEN  =       -30.47312917 eV

  energy without entropy =      -30.47310770  energy(sigma->0) =      -30.47311844


--------------------------------------------------------------------------------------------------------




----------------------------------------- Iteration    1(   3)  ---------------------------------------


     EDDAV:  cpu time    0.0078: real time    0.0078
       DOS:  cpu time    0.0001: real time    0.0001
    CHARGE:  cpu time    0.0080: real time    0.0082
    MIXING:  cpu time    0.0009: real time    0.0011
    --------------------------------------------
      LOOP:  cpu time    0.0171: real time    0.0203

 eigenvalue-minimisations  :    55
 total energy-change (2. order) :-0.3923250E+01  (-0.3532360E+01)
 number of electron      31.9999962 magnetization 
 augmentation part       -1.7898367 magnetization 

 Broyden mixing:
  rms(total) = 0.12546E+01    rms(broyden)= 0.12545E+01
  rms(prec ) = 0.18231E+01
  weight for this iteration     100.00

 Free energy of the ion-electron system (eV)
  ---------------------------------------------------
  alpha Z        PSCENC =        13.44915721
  Ewald energy   TEWEN  =      -914.08579262
  -Hartree energ DENC   =       -44.03749844
  -exchange      EXHF   =         0.00000000
  -V(xc)+E(xc)   XCENC  =       -74.41614067
  PAW double counting   =       704.99039692     -564.24414232
  entropy T*S    EENTRO =        -0.00000000
  eigenvalues    EBANDS =        19.46142845
  atomic energy  EATOM  =       824.48621262
  Solvation  Ediel_sol  =         0.00000000
  ---------------------------------------------------
  free energy    TOTEN  =       -34.39637885 eV

  energy without entropy =      -34.39637885  energy(sigma->0) =      -34.39637885


--------------------------------------------------------------------------------------------------------




----------------------------------------- Iteration    1(   4)  ---------------------------------------


    POTLOK:  cpu time    0.0046: real time    0.0046
    SETDIJ:  cpu time    0.0012: real time    0.0012
     EDDAV:  cpu time    0.0081: real time    0.0081
       DOS:  cpu time    0.0001: real time    0.0001
    CHARGE:  cpu time    0.0048: real time    0.0048
    MIXING:  cpu time    0.0007: real time    0.0008
    --------------------------------------------
      LOOP:  cpu time    0.0197: real time    0.0226

 eigenvalue-minimisations  :    55
 total energy-change (2. order) : 0.9481364E+00  (-0.1795568E+00)
 number of electron      31.9999962 magnetization 
 augmentation part       -1.7563273 magnetization 

 Broyden mixing:
  rms(total) = 0.76270E+00    rms(broyden)= 0.76270E+00
  rms(prec ) = 0.11029E+01
  weight for this iteration     100.00

 eigenvalues of (default mixing * dielectric matrix)
  average eigenvalue GAMMA=   2.5328
  2.5328

 Free energy of the ion-electron system (eV)
  ---------------------------------------------------
  alpha Z        PSCENC =        13.44915721
  Ewald energy   TEWEN  =      -914.08579262
  -Hartree energ DENC   =       -53.13520285
  -exchange      EXHF   =         0.00000000
  -V(xc)+E(xc)   XCENC  =       -73.09206313
  PAW double counting   =      1789.44209718    -1649.26960198
  entropy T*S    EENTRO =        -0.00000004
  eigenvalues    EBANDS =        28.75695112
  atomic energy  EATOM  =       824.48621262
  Solvation  Ediel_sol  =         0.00000000
  ---------------------------------------------------
  free energy    TOTEN  =       -33.44824248 eV

  energy without entropy =      -33.44824245  energy(sigma->0) =      -33.44824246


--------------------------------------------------------------------------------------------------------




----------------------------------------- Iteration    1(   5)  ---------------------------------------


    POTLOK:  cpu time    0.0046: real time    0.0046
    SETDIJ:  cpu time    0.0011: real time    0.0011
     EDDAV:  cpu time    0.0084: real time    0.0084
       DOS:  cpu time    0.0001: real time    0.0001
    CHARGE:  cpu time    0.0043: real time    0.0043
    MIXING:  cpu time    0.0005: real time    0.0005
    --------------------------------------------
      LOOP:  cpu time    0.0193: real time    0.0223

 eigenvalue-minimisations  :    60
 total energy-change (2. order) : 0.4347164E+00  (-0.1212331E+00)
 number of electron      31.9999963 magnetization 
 augmentation part       -1.7097135 magnetization 

 Broyden mixing:
  rms(total) = 0.59237E-01    rms(broyden)= 0.59232E-01
  rms(prec ) = 0.87683E-01
  weight for this iteration     100.00

 eigenvalues of (default mixing * dielectric matrix)
  average eigenvalue GAMMA=   1.8598
  1.1372  2.5825

 Free energy of the ion-electron system (eV)
  ---------------------------------------------------
  alpha Z        PSCENC =        13.44915721
  Ewald energy   TEWEN  =      -914.08579262
  -Hartree energ DENC   =       -69.57118632
  -exchange      EXHF   =         0.00000000
  -V(xc)+E(xc)   XCENC  =       -70.68267455
  PAW double counting   =      4609.13503211    -4469.72858073
  entropy T*S    EENTRO =        -0.00030910
  eigenvalues    EBANDS =        43.98461534
  atomic energy  EATOM  =       824.48621262
  Solvation  Ediel_sol  =         0.00000000
  ---------------------------------------------------
  free energy    TOTEN  =       -33.01352604 eV

  energy without entropy =      -33.01321694  energy(sigma->0) =      -33.01337149


--------------------------------------------------------------------------------------------------------




----------------------------------------- Iteration    1(   6)  ---------------------------------------


    POTLOK:  cpu time    0.0041: real time    0.0041
    SETDIJ:  cpu time    0.0011: real time    0.0011
     EDDAV:  cpu time    0.0074: real time    0.0074
       DOS:  cpu time    0.0001: real time    0.0001
    CHARGE:  cpu time    0.0042: real time    0.0042
    MIXING:  cpu time    0.0005: real time    0.0005
    --------------------------------------------
      LOOP:  cpu time    0.0178: real time    0.0209

 eigenvalue-minimisations  :    50
 total energy-change (2. order) :-0.2446689E-01  (-0.4694624E-02)
 number of electron      31.9999963 magnetization 
 augmentation part       -1.7126058 magnetization 

 Broyden mixing:
  rms(total) = 0.22761E-01    rms(broyden)= 0.22761E-01
  rms(prec ) = 0.38122E-01
  weight for this iteration     100.00

 eigenvalues of (default mixing * dielectric matrix)
  average eigenvalue GAMMA=   1.9020
  2.4140  2.4140  0.8781

 Free energy of the ion-electron system (eV)
  ---------------------------------------------------
  alpha Z        PSCENC =        13.44915721
  Ewald energy   TEWEN  =      -914.08579262
  -Hartree energ DENC   =       -69.39428574
  -exchange      EXHF   =         0.00000000
  -V(xc)+E(xc)   XCENC  =       -70.68090127
  PAW double counting   =      4679.00701992    -4539.47901824
  entropy T*S    EENTRO =        -0.00010239
  eigenvalues    EBANDS =        43.65971759
  atomic energy  EATOM  =       824.48621262
  Solvation  Ediel_sol  =         0.00000000
  ---------------------------------------------------
  free energy    TOTEN  =       -33.03799293 eV

  energy without entropy =      -33.03789054  energy(sigma->0) =      -33.03794173


--------------------------------------------------------------------------------------------------------




----------------------------------------- Iteration    1(   7)  ---------------------------------------


    POTLOK:  cpu time    0.0039: real time    0.0039
    SETDIJ:  cpu time    0.0011: real time    0.0011
     EDDAV:  cpu time    0.0083: real time    0.0083
       DOS:  cpu time    0.0001: real time    0.0001
    CHARGE:  cpu time    0.0042: real time    0.0042
    MIXING:  cpu time    0.0004: real time    0.0004
    --------------------------------------------
      LOOP:  cpu time    0.0184: real time    0.0216

 eigenvalue-minimisations  :    60
 total energy-change (2. order) :-0.7810002E-02  (-0.5558908E-03)
 number of electron      31.9999963 magnetization 
 augmentation part       -1.7150029 magnetization 

 Broyden mixing:
  rms(total) = 0.13380E-01    rms(broyden)= 0.13380E-01
  rms(prec ) = 0.17550E-01
  weight for this iteration     100.00

 eigenvalues of (default mixing * dielectric matrix)
  average eigenvalue GAMMA=   1.9550
  2.7751  2.5525  1.1214  1.3709

 Free energy of the ion-electron system (eV)
  ---------------------------------------------------
  alpha Z        PSCENC =        13.44915721
  Ewald energy   TEWEN  =      -914.08579262
  -Hartree energ DENC   =       -69.32673017
  -exchange      EXHF   =         0.00000000
  -V(xc)+E(xc)   XCENC  =       -70.67288485
  PAW double counting   =      4672.93328051    -4533.33010345
  entropy T*S    EENTRO =        -0.00004626
  eigenvalues    EBANDS =        43.50110406
  atomic energy  EATOM  =       824.48621262
  Solvation  Ediel_sol  =         0.00000000
  ---------------------------------------------------
  free energy    TOTEN  =       -33.04580293 eV

  energy without entropy =      -33.04575667  energy(sigma->0) =      -33.04577980


--------------------------------------------------------------------------------------------------------




----------------------------------------- Iteration    1(   8)  ---------------------------------------


    POTLOK:  cpu time    0.0039: real time    0.0039
    SETDIJ:  cpu time    0.0011: real time    0.0011
     EDDAV:  cpu time    0.0077: real time    0.0077
       DOS:  cpu time    0.0001: real time    0.0001
    CHARGE:  cpu time    0.0042: real time    0.0042
    MIXING:  cpu time    0.0005: real time    0.0005
    --------------------------------------------
      LOOP:  cpu time    0.0178: real time    0.0210

 eigenvalue-minimisations  :    55
 total energy-change (2. order) :-0.7883916E-03  (-0.7382077E-04)
 number of electron      31.9999963 magnetization 
 augmentation part       -1.7151772 magnetization 

 Broyden mixing:
  rms(total) = 0.64160E-02    rms(broyden)= 0.64160E-02
  rms(prec ) = 0.71166E-02
  weight for this iteration     100.00

 eigenvalues of (default mixing * dielectric matrix)
  average eigenvalue GAMMA=   2.0114
  3.0918  2.5494  2.3346  0.9806  1.1008

 Free energy of the ion-electron system (eV)
  ---------------------------------------------------
  alpha Z        PSCENC =        13.44915721
  Ewald energy   TEWEN  =      -914.08579262
  -Hartree energ DENC   =       -69.52410240
  -exchange      EXHF   =         0.00000000
  -V(xc)+E(xc)   XCENC  =       -70.64319803
  PAW double counting   =      4640.38765228    -4500.78206745
  entropy T*S    EENTRO =        -0.00003995
  eigenvalues    EBANDS =        43.66558703
  atomic energy  EATOM  =       824.48621262
  Solvation  Ediel_sol  =         0.00000000
  ---------------------------------------------------
  free energy    TOTEN  =       -33.04659132 eV

  energy without entropy =      -33.04655137  energy(sigma->0) =      -33.04657134


--------------------------------------------------------------------------------------------------------




----------------------------------------- Iteration    1(   9)  ---------------------------------------


    POTLOK:  cpu time    0.0039: real time    0.0039
    SETDIJ:  cpu time    0.0011: real time    0.0011
     EDDAV:  cpu time    0.0066: real time    0.0066
       DOS:  cpu time    0.0001: real time    0.0001
    --------------------------------------------
      LOOP:  cpu time    0.0121: real time    0.0147

 eigenvalue-minimisations  :    40
 total energy-change (2. order) :-0.1724365E-04  (-0.5785807E-05)
 number of electron      31.9999963 magnetization 
 augmentation part       -1.7151772 magnetization 

 Free energy of the ion-electron system (eV)
  ---------------------------------------------------
  alpha Z        PSCENC =        13.44915721
  Ewald energy   TEWEN  =      -914.08579262
  -Hartree energ DENC   =       -69.60175085
  -exchange      EXHF   =         0.00000000
  -V(xc)+E(xc)   XCENC  =       -70.63582527
  PAW double counting   =      4611.59986464    -4472.00307475
  entropy T*S    EENTRO =        -0.00004072
  eigenvalues    EBANDS =        43.74464119
  atomic energy  EATOM  =       824.48621262
  Solvation  Ediel_sol  =         0.00000000
  ---------------------------------------------------
  free energy    TOTEN  =       -33.04660856 eV

  energy without entropy =      -33.04656784  energy(sigma->0) =      -33.04658820


--------------------------------------------------------------------------------------------------------




 average (electrostatic) potential at core
  the test charge radii are     0.9892
  (the norm of the test charge is              1.0000)
       1 -82.7212       2 -82.7212       3 -82.7212       4 -82.7212       5 -82.7212
       6 -82.7212       7 -82.7212       8 -82.7212
 
 
 
 E-fermi :   6.4661     XC(G=0):  -9.1852     alpha+bet :-11.9779


 k-point     1 :       0.0000    0.0000    0.0000
  band No.  band energies     occupation 
      1      -5.8620      2.00000
      2      -1.6949      2.00000
      3      -1.6949      2.00000
      4      -1.6949      2.00000
      5      -1.6949      2.00000
      6      -1.6949      2.00000
      7      -1.6949      2.00000
      8       3.2346      2.00000
      9       3.2346      2.00000
     10       3.2346      2.00000
     11       3.2346      2.00000
     12       3.2346      2.00000
     13       3.2346      2.00000
     14       6.1654      1.99998
     15       6.1654      1.99998
     16       6.1654      1.99998
     17       6.7776      0.00001
     18       6.7776      0.00001
     19       6.7776      0.00001
     20       6.7776      0.00001
     21       6.7776      0.00001
     22       6.7776      0.00001
     23       8.6040      0.00000
     24       8.6040      0.00000
     25       8.6040      0.00000


--------------------------------------------------------------------------------------------------------


 soft charge-density along one line, spin component           1
         0         1         2         3         4         5         6         7         8         9
 total charge-density along one line
 
 pseudopotential strength for first ion, spin component:           1
 18.367  25.624  -0.000   0.000  -0.000  -0.000   0.000  -0.000
 25.624  35.754  -0.000   0.000  -0.000  -0.000   0.000  -0.000
 -0.000  -0.000   4.175   0.000   0.000   7.780   0.000   0.000
  0.000   0.000   0.000   4.175  -0.000   0.000   7.780  -0.000
 -0.000  -0.000   0.000  -0.000   4.175   0.000  -0.000   7.780
 -0.000  -0.000   7.780   0.000   0.000  14.507   0.000   0.000
  0.000   0.000   0.000   7.780  -0.000   0.000  14.507  -0.000
 -0.000  -0.000   0.000  -0.000   7.780   0.000  -0.000  14.507
 total augmentation occupancy for first ion, spin component:           1
  6.485  -2.598   0.000   0.000   0.000   0.000   0.000   0.000
 -2.598   1.070   0.000   0.000   0.000   0.000   0.000   0.000
  0.000   0.000   3.649   0.000   0.000  -0.880   0.000   0.000
  0.000   0.000   0.000   3.649   0.000   0.000  -0.880   0.000
  0.000   0.000   0.000   0.000   3.649   0.000   0.000  -0.880
  0.000   0.000  -0.880   0.000   0.000   0.224   0.000   0.000
  0.000   0.000   0.000  -0.880   0.000   0.000   0.224   0.000
  0.000   0.000   0.000   0.000  -0.880   0.000   0.000   0.224


------------------------ aborting loop because EDIFF is reached ----------------------------------------


    CHARGE:  cpu time    0.0046: real time    0.0046
    FORLOC:  cpu time    0.0003: real time    0.0003
    FORNL :  cpu time    0.0017: real time    0.0017
    STRESS:  cpu time    0.0038: real time    0.0040
    FORCOR:  cpu time    0.0040: real time    0.0040
    FORHAR:  cpu time    0.0013: real time    0.0014
    MIXING:  cpu time    0.0006: real time    0.0006
    OFIELD:  cpu time    0.0001: real time    0.0002

  FORCE on cell =-STRESS in cart. coord.  units (eV):
  Direction    XX          YY          ZZ          XY          YZ          ZX
  --------------------------------------------------------------------------------------
  Alpha Z    13.44916    13.44916    13.44916
  Ewald    -304.69578  -304.69578  -304.69578     0.00000     0.00000     0.00000
  Hartree    23.19777    23.19777    23.19777    -0.00000    -0.00000    -0.00000
  E(xc)    -103.30179  -103.30179  -103.30179    -0.00000    -0.00000     0.00000
  Local    -123.29916  -123.29916  -123.29916     0.00000    -0.00000     0.00000
  n-local   306.24089   306.24089   306.24076     0.00005    -0.00014    -0.00003
  augment   -43.52283   -43.52283   -43.52283     0.00000     0.00000    -0.00000
  Kinetic   242.68252   242.68326   242.68279    -0.00002     0.00014    -0.00004
  Fock        0.00000     0.00000     0.00000     0.00000     0.00000     0.00000
  -------------------------------------------------------------------------------------
  Total      10.75107    10.75107    10.75107    -0.00000    -0.00000     0.00000
  in kB     107.52836   107.52836   107.52836    -0.00000    -0.00000     0.00000
  external pressure =      107.53 kB  Pullay stress =        0.00 kB


 VOLUME and BASIS-vectors are now :
 -----------------------------------------------------------------------------
  energy-cutoff  :      240.00
  volume of cell :      160.19
      direct lattice vectors                 reciprocal lattice vectors
     5.431000000  0.000000000  0.000000000     0.184128153  0.000000000  0.000000000
     0.000000000  5.431000000  0.000000000     0.000000000  0.184128153  0.000000000
     0.000000000  0.000000000  5.431000000     0.000000000  0.000000000  0.184128153

  length of vectors
     5.431000000  5.431000000  5.431000000     0.184128153  0.184128153  0.184128153


 FORCES acting on ions
    electron-ion (+dipol)            ewald-force                    non-local-force                 convergence-correction
 -----------------------------------------------------------------------------------------------
   0.825E-13 -.246E-14 -.317E-14   0.711E-14 0.000E+00 0.711E-14   0.644E-19 -.440E-19 -.169E-20   0.540E-14 0.185E-14 0.128E-13
   0.762E-13 -.144E-13 -.173E-13   0.711E-14 0.000E+00 0.355E-14   0.129E-18 -.661E-19 0.440E-19   0.557E-14 -.180E-14 -.458E-14
   0.682E-13 -.582E-14 0.362E-12   0.711E-14 0.000E+00 0.355E-14   0.915E-19 -.525E-19 0.440E-19   -.378E-14 0.160E-14 -.495E-14
   0.724E-13 0.141E-12 0.186E-12   0.711E-14 0.000E+00 0.711E-14   0.847E-19 -.102E-19 -.152E-19   -.359E-14 -.178E-14 0.126E-13
   -.973E-13 0.126E-12 -.112E-13   -.121E-13 -.175E-15 -.406E-14   -.103E-18 0.322E-19 -.339E-20   -.282E-15 -.256E-14 -.493E-14
   -.102E-12 -.339E-12 0.413E-12   -.913E-14 -.280E-15 -.407E-14   -.627E-19 0.254E-19 0.102E-19   -.362E-14 0.197E-14 -.501E-14
   -.999E-13 -.104E-12 0.162E-12   -.115E-13 0.418E-15 -.310E-14   -.156E-18 0.627E-19 -.407E-19   -.337E-14 -.227E-14 0.113E-13
   -.956E-13 0.880E-13 -.175E-13   -.987E-14 0.313E-15 -.310E-14   -.779E-19 0.424E-19 -.271E-19   -.284E-15 0.173E-14 0.111E-13
 -----------------------------------------------------------------------------------------------
   -.954E-13 -.111E-12 0.107E-11   -.142E-13 0.276E-15 0.699E-14   -.305E-19 -.102E-19 0.102E-19   -.396E-14 -.128E-14 0.283E-13
 
 
 POSITION                                       TOTAL-FORCE (eV/Angst)
 -----------------------------------------------------------------------------------
      0.00000      0.00000      0.00000        -0.000000      0.000000      0.000000
      0.00000      2.71550      2.71550         0.000000     -0.000000     -0.000000
      2.71550      0.00000      2.71550        -0.000000     -0.000000     -0.000000
      2.71550      2.71550      0.00000         0.000000      0.000000     -0.000000
      1.35775      1.35775      1.35775        -0.000000     -0.000000     -0.000000
      4.07325      4.07325      1.35775         0.000000     -0.000000     -0.000000
      4.07325      1.35775      4.07325        -0.000000      0.000000      0.000000
      1.35775      4.07325      4.07325         0.000000     -0.000000      0.000000
 -----------------------------------------------------------------------------------
    total drift:                               -0.000000     -0.000000      0.000000


--------------------------------------------------------------------------------------------------------



  FREE ENERGIE OF THE ION-ELECTRON SYSTEM (eV)
  ---------------------------------------------------
  free  energy   TOTEN  =       -33.04660856 eV

  energy  without entropy=      -33.04656784  energy(sigma->0) =      -33.04658820
 


--------------------------------------------------------------------------------------------------------


    POTLOK:  cpu time    0.0056: real time    0.0056


--------------------------------------------------------------------------------------------------------




--------------------------------------------------------------------------------------------------------


    WAVPRE:  cpu time    0.0006: real time    0.0007
 FEWALD executed in parallel
    FEWALD:  cpu time    0.0003: real time    0.0003
    GENKIN:  cpu time    0.0001: real time    0.0001
    ORTHCH:  cpu time    0.0005: real time    0.0005
     LOOP+:  cpu time    0.4910: real time    0.6727


----------------------------------------- Iteration    2(   1)  ---------------------------------------


    POTLOK:  cpu time    0.0038: real time    0.0038
    SETDIJ:  cpu time    0.0011: real time    0.0011
     EDDAV:  cpu time    0.0078: real time    0.0089
       DOS:  cpu time    0.0001: real time    0.0001
    --------------------------------------------
      LOOP:  cpu time    0.0134: real time    0.0233

 eigenvalue-minimisations  :    50
 total energy-change (2. order) :-0.3425631E+00  (-0.8192123E+01)
 number of electron      31.9999963 magnetization 
 augmentation part       -1.7148855 magnetization 

 Free energy of the ion-electron system (eV)
  ---------------------------------------------------
  alpha Z        PSCENC =         9.32923325
  Ewald energy   TEWEN  =      -809.16530424
  -Hartree energ DENC   =       -61.60322541
  -exchange      EXHF   =         0.00000000
  -V(xc)+E(xc)   XCENC  =       -77.91751629
  PAW double counting   =      4618.06772014    -4478.46870649
  entropy T*S    EENTRO =        -0.00000000
  eigenvalues    EBANDS =       -58.11756802
  atomic energy  EATOM  =       824.48621262
  Solvation  Ediel_sol  =         0.00000000
  ---------------------------------------------------
  free energy    TOTEN  =       -33.38915444 eV

  energy without entropy =      -33.38915443  energy(sigma->0) =      -33.38915443


--------------------------------------------------------------------------------------------------------




----------------------------------------- Iteration    2(   2)  ---------------------------------------


     EDDAV:  cpu time    0.0071: real time    0.0072
       DOS:  cpu time    0.0001: real time    0.0001
    --------------------------------------------
      LOOP:  cpu time    0.0075: real time    0.0417

 eigenvalue-minimisations  :    50
 total energy-change (2. order) :-0.1489864E+00  (-0.1489602E+00)
 number of electron      31.9999963 magnetization 
 augmentation part       -1.7148855 magnetization 

 Free energy of the ion-electron system (eV)
  ---------------------------------------------------
  alpha Z        PSCENC =         9.32923325
  Ewald energy   TEWEN  =      -809.16530424
  -Hartree energ DENC   =       -61.60322541
  -exchange      EXHF   =         0.00000000
  -V(xc)+E(xc)   XCENC  =       -77.91751629
  PAW double counting   =      4618.06772014    -4478.46870649
  entropy T*S    EENTRO =        -0.00000000
  eigenvalues    EBANDS =       -58.26655439
  atomic energy  EATOM  =       824.48621262
  Solvation  Ediel_sol  =         0.00000000
  ---------------------------------------------------
  free energy    TOTEN  =       -33.53814081 eV

  energy without entropy =      -33.53814081  energy(sigma->0) =      -33.53814081


--------------------------------------------------------------------------------------------------------




----------------------------------------- Iteration    2(   3)  ---------------------------------------


     EDDAV:  cpu time    0.0072: real time    0.0072
       DOS:  cpu time    0.0001: real time    0.0001
    CHARGE:  cpu time    0.0041: real time    0.0041
    MIXING:  cpu time    0.0003: real time    0.0003
    --------------------------------------------
      LOOP:  cpu time    0.0119: real time    0.0486

 eigenvalue-minimisations  :    50
 total energy-change (2. order) :-0.2985397E-02  (-0.2985390E-02)
 number of electron      32.0000009 magnetization 
 augmentation part       -1.8444346 magnetization 

 Broyden mixing:
  rms(total) = 0.90952E+00    rms(broyden)= 0.90785E+00
  rms(prec ) = 0.14498E+01
  weight for this iteration     100.00

 Free energy of the ion-electron system (eV)
  ---------------------------------------------------
  alpha Z        PSCENC =         9.32923325
  Ewald energy   TEWEN  =      -809.16530424
  -Hartree energ DENC   =       -61.60322541
  -exchange      EXHF   =         0.00000000
  -V(xc)+E(xc)   XCENC  =       -77.91751629
  PAW double counting   =      4618.06772014    -4478.46870649
  entropy T*S    EENTRO =        -0.00000000
  eigenvalues    EBANDS =       -58.26953979
  atomic energy  EATOM  =       824.48621262
  Solvation  Ediel_sol  =         0.00000000
  ---------------------------------------------------
  free energy    TOTEN  =       -33.54112621 eV

  energy without entropy =      -33.54112621  energy(sigma->0) =      -33.54112621


--------------------------------------------------------------------------------------------------------




----------------------------------------- Iteration    2(   4)  ---------------------------------------


    POTLOK:  cpu time    0.0038: real time    0.0038
    SETDIJ:  cpu time    0.0011: real time    0.0011
     EDDAV:  cpu time    0.0073: real time    0.0073
       DOS:  cpu time    0.0001: real time    0.0001
    CHARGE:  cpu time    0.0041: real time    0.0041
    MIXING:  cpu time    0.0004: real time    0.0004
    --------------------------------------------
      LOOP:  cpu time    0.0170: real time    0.0557

 eigenvalue-minimisations  :    50
 total energy-change (2. order) : 0.1629847E+01  (-0.6569156E-01)
 number of electron      32.0000008 magnetization 
 augmentation part       -1.7904060 magnetization 

 Broyden mixing:
  rms(total) = 0.48105E+00    rms(broyden)= 0.48097E+00
  rms(prec ) = 0.83167E+00
  weight for this iteration     100.00

 eigenvalues of (default mixing * dielectric matrix)
  average eigenvalue GAMMA=   2.0571
  2.0571

 Free energy of the ion-electron system (eV)
  ---------------------------------------------------
  alpha Z        PSCENC =         9.32923325
  Ewald energy   TEWEN  =      -809.16530424
  -Hartree energ DENC   =       -70.30709047
  -exchange      EXHF   =         0.00000000
  -V(xc)+E(xc)   XCENC  =       -77.69571220
  PAW double counting   =      3278.82797477    -3138.97371062
  entropy T*S    EENTRO =        -0.00000000
  eigenvalues    EBANDS =       -48.41288183
  atomic energy  EATOM  =       824.48621262
  Solvation  Ediel_sol  =         0.00000000
  ---------------------------------------------------
  free energy    TOTEN  =       -31.91127872 eV

  energy without entropy =      -31.91127872  energy(sigma->0) =      -31.91127872


--------------------------------------------------------------------------------------------------------




----------------------------------------- Iteration    2(   5)  ---------------------------------------


    POTLOK:  cpu time    0.0038: real time    0.0038
    SETDIJ:  cpu time    0.0011: real time    0.0011
     EDDAV:  cpu time    0.0073: real time    0.0073
       DOS:  cpu time    0.0001: real time    0.0001
    CHARGE:  cpu time    0.0041: real time    0.0041
    MIXING:  cpu time    0.0004: real time    0.0004
    --------------------------------------------
      LOOP:  cpu time    0.0171: real time    0.0556

 eigenvalue-minimisations  :    50
 total energy-change (2. order) : 0.8940314E+00  (-0.1247434E+00)
 number of electron      32.0000008 magnetization 
 augmentation part       -1.7087674 magnetization 

 Broyden mixing:
  rms(total) = 0.15084E+00    rms(broyden)= 0.15081E+00
  rms(prec ) = 0.16619E+00
  weight for this iteration     100.00

 eigenvalues of (default mixing * dielectric matrix)
  average eigenvalue GAMMA=   1.7557
  1.7557  1.7557

 Free energy of the ion-electron system (eV)
  ---------------------------------------------------
  alpha Z        PSCENC =         9.32923325
  Ewald energy   TEWEN  =      -809.16530424
  -Hartree energ DENC   =       -84.42098078
  -exchange      EXHF   =         0.00000000
  -V(xc)+E(xc)   XCENC  =       -77.05978630
  PAW double counting   =      2072.51893079    -1932.16158929
  entropy T*S    EENTRO =        -0.00000000
  eigenvalues    EBANDS =       -34.54396341
  atomic energy  EATOM  =       824.48621262
  Solvation  Ediel_sol  =         0.00000000
  ---------------------------------------------------
  free energy    TOTEN  =       -31.01724735 eV

  energy without entropy =      -31.01724735  energy(sigma->0) =      -31.01724735


--------------------------------------------------------------------------------------------------------




----------------------------------------- Iteration    2(   6)  ---------------------------------------


    POTLOK:  cpu time    0.0049: real time    0.0065
    SETDIJ:  cpu time    0.0012: real time    0.0012
     EDDAV:  cpu time    0.0113: real time    0.0115
       DOS:  cpu time    0.0001: real time    0.0001
    CHARGE:  cpu time    0.0053: real time    0.0053
    MIXING:  cpu time    0.0006: real time    0.0006
    --------------------------------------------
      LOOP:  cpu time    0.0237: real time    0.0652

 eigenvalue-minimisations  :    50
 total energy-change (2. order) :-0.1363990E-01  (-0.4902536E-02)
 number of electron      32.0000008 magnetization 
 augmentation part       -1.7013129 magnetization 

 Broyden mixing:
  rms(total) = 0.35077E-01    rms(broyden)= 0.35069E-01
  rms(prec ) = 0.58940E-01
  weight for this iteration     100.00

 eigenvalues of (default mixing * dielectric matrix)
  average eigenvalue GAMMA=   2.0554
  2.6135  1.6163  1.9364

 Free energy of the ion-electron system (eV)
  ---------------------------------------------------
  alpha Z        PSCENC =         9.32923325
  Ewald energy   TEWEN  =      -809.16530424
  -Hartree energ DENC   =       -85.08662861
  -exchange      EXHF   =         0.00000000
  -V(xc)+E(xc)   XCENC  =       -77.02989327
  PAW double counting   =      2599.60919790    -2458.99701385
  entropy T*S    EENTRO =        -0.00000000
  eigenvalues    EBANDS =       -34.17669106
  atomic energy  EATOM  =       824.48621262
  Solvation  Ediel_sol  =         0.00000000
  ---------------------------------------------------
  free energy    TOTEN  =       -31.03088726 eV

  energy without entropy =      -31.03088726  energy(sigma->0) =      -31.03088726


--------------------------------------------------------------------------------------------------------




----------------------------------------- Iteration    2(   7)  ---------------------------------------


    POTLOK:  cpu time    0.0040: real time    0.0056
    SETDIJ:  cpu time    0.0012: real time    0.0012
     EDDAV:  cpu time    0.0093: real time    0.0095
       DOS:  cpu time    0.0001: real time    0.0001
    CHARGE:  cpu time    0.0042: real time    0.0042
    MIXING:  cpu time    0.0006: real time    0.0006
    --------------------------------------------
      LOOP:  cpu time    0.0198: real time    0.0571

 eigenvalue-minimisations  :    60
 total energy-change (2. order) :-0.6683778E+00  (-0.7666278E-03)
 number of electron      32.0000009 magnetization 
 augmentation part       -2.0239934 magnetization 

 Broyden mixing:
  rms(total) = 0.17779E+00    rms(broyden)= 0.17766E+00
  rms(prec ) = 0.28167E+00
  weight for this iteration     100.00

 eigenvalues of (default mixing * dielectric matrix)
  average eigenvalue GAMMA=   1.5300
  2.4487  2.0859  1.5623  0.0232

 Free energy of the ion-electron system (eV)
  ---------------------------------------------------
  alpha Z        PSCENC =         9.32923325
  Ewald energy   TEWEN  =      -809.16530424
  -Hartree energ DENC   =       -86.39415058
  -exchange      EXHF   =         0.00000000
  -V(xc)+E(xc)   XCENC  =       -76.94053872
  PAW double counting   =      2613.98157217    -2473.31523955
  entropy T*S    EENTRO =        -0.15427432
  eigenvalues    EBANDS =       -33.52677572
  atomic energy  EATOM  =       824.48621262
  Solvation  Ediel_sol  =         0.00000000
  ---------------------------------------------------
  free energy    TOTEN  =       -31.69926509 eV

  energy without entropy =      -31.54499077  energy(sigma->0) =      -31.62212793


--------------------------------------------------------------------------------------------------------




----------------------------------------- Iteration    2(   8)  ---------------------------------------


    POTLOK:  cpu time    0.0038: real time    0.0039
    SETDIJ:  cpu time    0.0011: real time    0.0012
     EDDAV:  cpu time    0.0074: real time    0.0074
       DOS:  cpu time    0.0001: real time    0.0001
    CHARGE:  cpu time    0.0040: real time    0.0041
    MIXING:  cpu time    0.0006: real time    0.0006
    --------------------------------------------
      LOOP:  cpu time    0.0175: real time    0.0560

 eigenvalue-minimisations  :    50
 total energy-change (2. order) :-0.2332916E-01  (-0.2587079E-01)
 number of electron      32.0000009 magnetization 
 augmentation part       -2.0426404 magnetization 

 Broyden mixing:
  rms(total) = 0.19206E+00    rms(broyden)= 0.19205E+00
  rms(prec ) = 0.29470E+00
  weight for this iteration     100.00

 eigenvalues of (default mixing * dielectric matrix)
  average eigenvalue GAMMA=   1.2606
  2.5037  1.8607  1.8607  0.0389  0.0389

 Free energy of the ion-electron system (eV)
  ---------------------------------------------------
  alpha Z        PSCENC =         9.32923325
  Ewald energy   TEWEN  =      -809.16530424
  -Hartree energ DENC   =       -86.41030054
  -exchange      EXHF   =         0.00000000
  -V(xc)+E(xc)   XCENC  =       -76.93683047
  PAW double counting   =      2614.02356476    -2473.35716260
  entropy T*S    EENTRO =        -0.15426792
  eigenvalues    EBANDS =       -33.53773912
  atomic energy  EATOM  =       824.48621262
  Solvation  Ediel_sol  =         0.00000000
  ---------------------------------------------------
  free energy    TOTEN  =       -31.72259426 eV

  energy without entropy =      -31.56832634  energy(sigma->0) =      -31.64546030


--------------------------------------------------------------------------------------------------------




----------------------------------------- Iteration    2(   9)  ---------------------------------------


    POTLOK:  cpu time    0.0039: real time    0.0039
    SETDIJ:  cpu time    0.0011: real time    0.0011
     EDDAV:  cpu time    0.0066: real time    0.0067
       DOS:  cpu time    0.0001: real time    0.0001
    CHARGE:  cpu time    0.0040: real time    0.0041
    MIXING:  cpu time    0.0006: real time    0.0006
    --------------------------------------------
      LOOP:  cpu time    0.0167: real time    0.0525

 eigenvalue-minimisations  :    40
 total energy-change (2. order) : 0.1018872E-02  (-0.6604873E-04)
 number of electron      32.0000009 magnetization 
 augmentation part       -2.0428151 magnetization 

 Broyden mixing:
  rms(total) = 0.19326E+00    rms(broyden)= 0.19326E+00
  rms(prec ) = 0.29561E+00
  weight for this iteration     100.00

 eigenvalues of (default mixing * dielectric matrix)
  average eigenvalue GAMMA=   1.1886
  3.1560  1.8702  1.5870  0.2630  0.1276  0.1276

 Free energy of the ion-electron system (eV)
  ---------------------------------------------------
  alpha Z        PSCENC =         9.32923325
  Ewald energy   TEWEN  =      -809.16530424
  -Hartree energ DENC   =       -86.40025686
  -exchange      EXHF   =         0.00000000
  -V(xc)+E(xc)   XCENC  =       -76.93616057
  PAW double counting   =      2615.33935593    -2474.67207822
  entropy T*S    EENTRO =        -0.15426783
  eigenvalues    EBANDS =       -33.54830947
  atomic energy  EATOM  =       824.48621262
  Solvation  Ediel_sol  =         0.00000000
  ---------------------------------------------------
  free energy    TOTEN  =       -31.72157539 eV

  energy without entropy =      -31.56730756  energy(sigma->0) =      -31.64444147


--------------------------------------------------------------------------------------------------------




----------------------------------------- Iteration    2(  10)  ---------------------------------------


    POTLOK:  cpu time    0.0038: real time    0.0038
    SETDIJ:  cpu time    0.0011: real time    0.0011
     EDDAV:  cpu time    0.0074: real time    0.0074
       DOS:  cpu time    0.0001: real time    0.0001
    CHARGE:  cpu time    0.0041: real time    0.0042
    MIXING:  cpu time    0.0006: real time    0.0006
    --------------------------------------------
      LOOP:  cpu time    0.0175: real time    0.0546

 eigenvalue-minimisations  :    50
 total energy-change (2. order) : 0.1259010E-01  (-0.3077128E-03)
 number of electron      32.0000009 magnetization 
 augmentation part       -2.0387812 magnetization 

 Broyden mixing:
  rms(total) = 0.17548E+00    rms(broyden)= 0.17548E+00
  rms(prec ) = 0.27015E+00
  weight for this iteration     100.00

 eigenvalues of (default mixing * dielectric matrix)
  average eigenvalue GAMMA=   1.3697
  2.9094  2.8242  1.3912  1.3912  0.8204  0.1256  0.1256

 Free energy of the ion-electron system (eV)
  ---------------------------------------------------
  alpha Z        PSCENC =         9.32923325
  Ewald energy   TEWEN  =      -809.16530424
  -Hartree energ DENC   =       -87.12522382
  -exchange      EXHF   =         0.00000000
  -V(xc)+E(xc)   XCENC  =       -76.90224405
  PAW double counting   =      2678.47627365    -2537.80881283
  entropy T*S    EENTRO =        -0.15427132
  eigenvalues    EBANDS =       -32.84484855
  atomic energy  EATOM  =       824.48621262
  Solvation  Ediel_sol  =         0.00000000
  ---------------------------------------------------
  free energy    TOTEN  =       -31.70898529 eV

  energy without entropy =      -31.55471397  energy(sigma->0) =      -31.63184963


--------------------------------------------------------------------------------------------------------




----------------------------------------- Iteration    2(  11)  ---------------------------------------


    POTLOK:  cpu time    0.0038: real time    0.0038
    SETDIJ:  cpu time    0.0011: real time    0.0011
     EDDAV:  cpu time    0.0073: real time    0.0074
       DOS:  cpu time    0.0001: real time    0.0001
    CHARGE:  cpu time    0.0040: real time    0.0041
    MIXING:  cpu time    0.0006: real time    0.0006
    --------------------------------------------
      LOOP:  cpu time    0.0173: real time    0.0538

 eigenvalue-minimisations  :    50
 total energy-change (2. order) : 0.2077862E-01  (-0.8774191E-03)
 number of electron      32.0000009 magnetization 
 augmentation part       -2.0325673 magnetization 

 Broyden mixing:
  rms(total) = 0.16421E+00    rms(broyden)= 0.16421E+00
  rms(prec ) = 0.24836E+00
  weight for this iteration     100.00

 eigenvalues of (default mixing * dielectric matrix)
  average eigenvalue GAMMA=   1.2422
  3.0226  2.8125  1.4270  1.4270  0.8308  0.1250  0.1250  0.1677

 Free energy of the ion-electron system (eV)
  ---------------------------------------------------
  alpha Z        PSCENC =         9.32923325
  Ewald energy   TEWEN  =      -809.16530424
  -Hartree energ DENC   =       -87.78052727
  -exchange      EXHF   =         0.00000000
  -V(xc)+E(xc)   XCENC  =       -76.91226795
  PAW double counting   =      2782.89577031    -2642.36793533
  entropy T*S    EENTRO =        -0.15428311
  eigenvalues    EBANDS =       -32.01910496
  atomic energy  EATOM  =       824.48621262
  Solvation  Ediel_sol  =         0.00000000
  ---------------------------------------------------
  free energy    TOTEN  =       -31.68820667 eV

  energy without entropy =      -31.53392356  energy(sigma->0) =      -31.61106511


--------------------------------------------------------------------------------------------------------




----------------------------------------- Iteration    2(  12)  ---------------------------------------


    POTLOK:  cpu time    0.0038: real time    0.0038
    SETDIJ:  cpu time    0.0011: real time    0.0011
     EDDAV:  cpu time    0.0074: real time    0.0075
       DOS:  cpu time    0.0001: real time    0.0001
    CHARGE:  cpu time    0.0045: real time    0.0045
    MIXING:  cpu time    0.0006: real time    0.0006
    --------------------------------------------
      LOOP:  cpu time    0.0179: real time    0.0541

 eigenvalue-minimisations  :    50
 total energy-change (2. order) : 0.4807126E-02  (-0.1048782E-03)
 number of electron      32.0000009 magnetization 
 augmentation part       -2.0299332 magnetization 

 Broyden mixing:
  rms(total) = 0.16901E+00    rms(broyden)= 0.16901E+00
  rms(prec ) = 0.24750E+00
  weight for this iteration     100.00

 eigenvalues of (default mixing * dielectric matrix)
  average eigenvalue GAMMA=   1.6305
  3.3102  2.5009  2.5009  2.2117  2.2117  0.8794  0.8096  0.1250  0.1250

 Free energy of the ion-electron system (eV)
  ---------------------------------------------------
  alpha Z        PSCENC =         9.32923325
  Ewald energy   TEWEN  =      -809.16530424
  -Hartree energ DENC   =       -88.02590161
  -exchange      EXHF   =         0.00000000
  -V(xc)+E(xc)   XCENC  =       -76.91128911
  PAW double counting   =      2814.85100856    -2674.34813332
  entropy T*S    EENTRO =        -0.15428848
  eigenvalues    EBANDS =       -31.74493721
  atomic energy  EATOM  =       824.48621262
  Solvation  Ediel_sol  =         0.00000000
  ---------------------------------------------------
  free energy    TOTEN  =       -31.68339954 eV

  energy without entropy =      -31.52911107  energy(sigma->0) =      -31.60625531


--------------------------------------------------------------------------------------------------------




----------------------------------------- Iteration    2(  13)  ---------------------------------------


    POTLOK:  cpu time    0.0038: real time    0.0038
    SETDIJ:  cpu time    0.0011: real time    0.0011
     EDDAV:  cpu time    0.0054: real time    0.0054
       DOS:  cpu time    0.0001: real time    0.0001
    CHARGE:  cpu time    0.0040: real time    0.0041
    MIXING:  cpu time    0.0006: real time    0.0006
    --------------------------------------------
      LOOP:  cpu time    0.0153: real time    0.0539

 eigenvalue-minimisations  :    25
 total energy-change (2. order) : 0.4528874E-03  (-0.2622608E-05)
 number of electron      32.0000009 magnetization 
 augmentation part       -2.0297926 magnetization 

 Broyden mixing:
  rms(total) = 0.17344E+00    rms(broyden)= 0.17344E+00
  rms(prec ) = 0.25017E+00
  weight for this iteration     100.00

 eigenvalues of (default mixing * dielectric matrix)
  average eigenvalue GAMMA=   1.6113
  3.3937  2.8885  2.8885  2.0702  2.0702  0.9305  0.9305  0.6907  0.1250  0.1250

 Free energy of the ion-electron system (eV)
  ---------------------------------------------------
  alpha Z        PSCENC =         9.32923325
  Ewald energy   TEWEN  =      -809.16530424
  -Hartree energ DENC   =       -88.02745993
  -exchange      EXHF   =         0.00000000
  -V(xc)+E(xc)   XCENC  =       -76.91529405
  PAW double counting   =      2831.22016741    -2690.71643607
  entropy T*S    EENTRO =        -0.15428889
  eigenvalues    EBANDS =       -31.73977675
  atomic energy  EATOM  =       824.48621262
  Solvation  Ediel_sol  =         0.00000000
  ---------------------------------------------------
  free energy    TOTEN  =       -31.68294666 eV

  energy without entropy =      -31.52865777  energy(sigma->0) =      -31.60580221


--------------------------------------------------------------------------------------------------------




----------------------------------------- Iteration    2(  14)  ---------------------------------------


    POTLOK:  cpu time    0.0038: real time    0.0038
    SETDIJ:  cpu time    0.0011: real time    0.0011
     EDDAV:  cpu time    0.0073: real time    0.0074
       DOS:  cpu time    0.0001: real time    0.0001
    CHARGE:  cpu time    0.0040: real time    0.0041
    MIXING:  cpu time    0.0006: real time    0.0006
    --------------------------------------------
      LOOP:  cpu time    0.0174: real time    0.0332

 eigenvalue-minimisations  :    50
 total energy-change (2. order) : 0.4405740E-02  (-0.3771657E-04)
 number of electron      32.0000009 magnetization 
 augmentation part       -2.0282851 magnetization 

 Broyden mixing:
  rms(total) = 0.20055E+00    rms(broyden)= 0.20055E+00
  rms(prec ) = 0.26625E+00
  weight for this iteration     100.00

 eigenvalues of (default mixing * dielectric matrix)
  average eigenvalue GAMMA=   1.5132
  3.1864  3.1864  3.2490  2.1990  1.6636  0.9978  0.8834  0.6269  0.1250  0.1250
  0.4027

 Free energy of the ion-electron system (eV)
  ---------------------------------------------------
  alpha Z        PSCENC =         9.32923325
  Ewald energy   TEWEN  =      -809.16530424
  -Hartree energ DENC   =       -88.16444199
  -exchange      EXHF   =         0.00000000
  -V(xc)+E(xc)   XCENC  =       -76.93365218
  PAW double counting   =      2891.49113450    -2750.99889774
  entropy T*S    EENTRO =        -0.15429466
  eigenvalues    EBANDS =       -31.56853047
  atomic energy  EATOM  =       824.48621262
  Solvation  Ediel_sol  =         0.00000000
  ---------------------------------------------------
  free energy    TOTEN  =       -31.67854092 eV

  energy without entropy =      -31.52424625  energy(sigma->0) =      -31.60139358


--------------------------------------------------------------------------------------------------------




----------------------------------------- Iteration    2(  15)  ---------------------------------------


    POTLOK:  cpu time    0.0038: real time    0.0038
    SETDIJ:  cpu time    0.0011: real time    0.0011
     EDDAV:  cpu time    0.0053: real time    0.0054
       DOS:  cpu time    0.0001: real time    0.0001
    CHARGE:  cpu time    0.0040: real time    0.0041
    MIXING:  cpu time    0.0007: real time    0.0007
    --------------------------------------------
      LOOP:  cpu time    0.0154: real time    0.0179

 eigenvalue-minimisations  :    25
 total energy-change (2. order) :-0.1054010E-02  (-0.2761925E-05)
 number of electron      32.0000009 magnetization 
 augmentation part       -2.0285020 magnetization 

 Broyden mixing:
  rms(total) = 0.19484E+00    rms(broyden)= 0.19484E+00
  rms(prec ) = 0.26280E+00
  weight for this iteration     100.00

 eigenvalues of (default mixing * dielectric matrix)
  average eigenvalue GAMMA=   1.3969
  3.2043  3.2043  3.2454  2.1863  1.6798  0.9968  0.8815  0.6505  0.1250  0.1250
  0.2321  0.2321

 Free energy of the ion-electron system (eV)
  ---------------------------------------------------
  alpha Z        PSCENC =         9.32923325
  Ewald energy   TEWEN  =      -809.16530424
  -Hartree energ DENC   =       -88.13282111
  -exchange      EXHF   =         0.00000000
  -V(xc)+E(xc)   XCENC  =       -76.92906881
  PAW double counting   =      2883.85624360    -2743.36034127
  entropy T*S    EENTRO =        -0.15429313
  eigenvalues    EBANDS =       -31.60945585
  atomic energy  EATOM  =       824.48621262
  Solvation  Ediel_sol  =         0.00000000
  ---------------------------------------------------
  free energy    TOTEN  =       -31.67959493 eV

  energy without entropy =      -31.52530180  energy(sigma->0) =      -31.60244836


--------------------------------------------------------------------------------------------------------




----------------------------------------- Iteration    2(  16)  ---------------------------------------


    POTLOK:  cpu time    0.0038: real time    0.0038
    SETDIJ:  cpu time    0.0011: real time    0.0011
     EDDAV:  cpu time    0.0073: real time    0.0073
       DOS:  cpu time    0.0001: real time    0.0001
    CHARGE:  cpu time    0.0041: real time    0.0041
    MIXING:  cpu time    0.0007: real time    0.0007
    --------------------------------------------
      LOOP:  cpu time    0.0173: real time    0.0198

 eigenvalue-minimisations  :    50
 total energy-change (2. order) :-0.1409480E-01  (-0.3750785E-03)
 number of electron      32.0000009 magnetization 
 augmentation part       -2.0331159 magnetization 

 Broyden mixing:
  rms(total) = 0.16897E+00    rms(broyden)= 0.16897E+00
  rms(prec ) = 0.25758E+00
  weight for this iteration     100.00

 eigenvalues of (default mixing * dielectric matrix)
  average eigenvalue GAMMA=   1.4760
  3.2189  3.0196  3.0196  1.7800  2.0136  1.8380  1.0390  0.8460  0.6975  0.7328
  0.7328  0.1250  0.1250

 Free energy of the ion-electron system (eV)
  ---------------------------------------------------
  alpha Z        PSCENC =         9.32923325
  Ewald energy   TEWEN  =      -809.16530424
  -Hartree energ DENC   =       -87.72021297
  -exchange      EXHF   =         0.00000000
  -V(xc)+E(xc)   XCENC  =       -76.88032016
  PAW double counting   =      2838.60778386    -2698.06128790
  entropy T*S    EENTRO =        -0.15427909
  eigenvalues    EBANDS =       -32.13551510
  atomic energy  EATOM  =       824.48621262
  Solvation  Ediel_sol  =         0.00000000
  ---------------------------------------------------
  free energy    TOTEN  =       -31.69368972 eV

  energy without entropy =      -31.53941063  energy(sigma->0) =      -31.61655018


--------------------------------------------------------------------------------------------------------




----------------------------------------- Iteration    2(  17)  ---------------------------------------


    POTLOK:  cpu time    0.0038: real time    0.0038
    SETDIJ:  cpu time    0.0011: real time    0.0011
     EDDAV:  cpu time    0.0073: real time    0.0073
       DOS:  cpu time    0.0001: real time    0.0001
    CHARGE:  cpu time    0.0040: real time    0.0041
    MIXING:  cpu time    0.0008: real time    0.0008
    --------------------------------------------
      LOOP:  cpu time    0.0174: real time    0.0199

 eigenvalue-minimisations  :    50
 total energy-change (2. order) :-0.7231035E-02  (-0.8156501E-04)
 number of electron      32.0000009 magnetization 
 augmentation part       -2.0357621 magnetization 

 Broyden mixing:
  rms(total) = 0.17373E+00    rms(broyden)= 0.17373E+00
  rms(prec ) = 0.26883E+00
  weight for this iteration     100.00

 eigenvalues of (default mixing * dielectric matrix)
  average eigenvalue GAMMA=   1.5456
  3.2643  2.9289  2.9289  1.9044  1.9044  2.0534  2.0534  0.9096  0.9096  0.8842
  0.9317  0.7154  0.1250  0.1250

 Free energy of the ion-electron system (eV)
  ---------------------------------------------------
  alpha Z        PSCENC =         9.32923325
  Ewald energy   TEWEN  =      -809.16530424
  -Hartree energ DENC   =       -87.56712490
  -exchange      EXHF   =         0.00000000
  -V(xc)+E(xc)   XCENC  =       -76.85396917
  PAW double counting   =      2820.66191235    -2680.09440115
  entropy T*S    EENTRO =        -0.15427504
  eigenvalues    EBANDS =       -32.34320448
  atomic energy  EATOM  =       824.48621262
  Solvation  Ediel_sol  =         0.00000000
  ---------------------------------------------------
  free energy    TOTEN  =       -31.70092076 eV

  energy without entropy =      -31.54664572  energy(sigma->0) =      -31.62378324


--------------------------------------------------------------------------------------------------------




----------------------------------------- Iteration    2(  18)  ---------------------------------------


    POTLOK:  cpu time    0.0038: real time    0.0038
    SETDIJ:  cpu time    0.0011: real time    0.0011
     EDDAV:  cpu time    0.0053: real time    0.0053
       DOS:  cpu time    0.0001: real time    0.0001
    CHARGE:  cpu time    0.0041: real time    0.0041
    MIXING:  cpu time    0.0008: real time    0.0008
    --------------------------------------------
      LOOP:  cpu time    0.0155: real time    0.0181

 eigenvalue-minimisations  :    25
 total energy-change (2. order) : 0.1315564E-02  (-0.3744503E-05)
 number of electron      32.0000009 magnetization 
 augmentation part       -2.0354985 magnetization 

 Broyden mixing:
  rms(total) = 0.17189E+00    rms(broyden)= 0.17189E+00
  rms(prec ) = 0.26560E+00
  weight for this iteration     100.00

 eigenvalues of (default mixing * dielectric matrix)
  average eigenvalue GAMMA=   1.7175
[...]


--------------------------------------------------------------------------------------------------------




--------------------------------------------------------------------------------------------------------


    WAVPRE:  cpu time    0.0006: real time    0.0006
 FEWALD executed in parallel
    FEWALD:  cpu time    0.0002: real time    0.0002
    GENKIN:  cpu time    0.0001: real time    0.0001
    ORTHCH:  cpu time    0.0004: real time    0.0004
     LOOP+:  cpu time    0.1356: real time    0.1629


----------------------------------------- Iteration    6(   1)  ---------------------------------------


    POTLOK:  cpu time    0.0038: real time    0.0038
    SETDIJ:  cpu time    0.0011: real time    0.0011
     EDDAV:  cpu time    0.0073: real time    0.0073
       DOS:  cpu time    0.0001: real time    0.0001
    --------------------------------------------
      LOOP:  cpu time    0.0129: real time    0.0139

 eigenvalue-minimisations  :    50
 total energy-change (2. order) :-0.1023147E-02  (-0.1085660E-02)
 number of electron      32.0000048 magnetization 
 augmentation part       -1.6981170 magnetization 

 Free energy of the ion-electron system (eV)
  ---------------------------------------------------
  alpha Z        PSCENC =        12.09607781
  Ewald energy   TEWEN  =      -882.34167567
  -Hartree energ DENC   =       -74.60715222
  -exchange      EXHF   =         0.00000000
  -V(xc)+E(xc)   XCENC  =       -72.55579475
  PAW double counting   =      3851.90973542    -3711.90969382
  entropy T*S    EENTRO =        -0.00000003
  eigenvalues    EBANDS =        19.32541289
  atomic energy  EATOM  =       824.48621262
  Solvation  Ediel_sol  =         0.00000000
  ---------------------------------------------------
  free energy    TOTEN  =       -33.59687774 eV

  energy without entropy =      -33.59687771  energy(sigma->0) =      -33.59687772


--------------------------------------------------------------------------------------------------------




----------------------------------------- Iteration    6(   2)  ---------------------------------------


     EDDAV:  cpu time    0.0059: real time    0.0060
       DOS:  cpu time    0.0001: real time    0.0001
    --------------------------------------------
      LOOP:  cpu time    0.0063: real time    0.0090

 eigenvalue-minimisations  :    35
 total energy-change (2. order) :-0.3181255E-04  (-0.3181237E-04)
 number of electron      32.0000048 magnetization 
 augmentation part       -1.6981170 magnetization 

 Free energy of the ion-electron system (eV)
  ---------------------------------------------------
  alpha Z        PSCENC =        12.09607781
  Ewald energy   TEWEN  =      -882.34167567
  -Hartree energ DENC   =       -74.60715222
  -exchange      EXHF   =         0.00000000
  -V(xc)+E(xc)   XCENC  =       -72.55579475
  PAW double counting   =      3851.90973542    -3711.90969382
  entropy T*S    EENTRO =        -0.00000003
  eigenvalues    EBANDS =        19.32538108
  atomic energy  EATOM  =       824.48621262
  Solvation  Ediel_sol  =         0.00000000
  ---------------------------------------------------
  free energy    TOTEN  =       -33.59690955 eV

  energy without entropy =      -33.59690952  energy(sigma->0) =      -33.59690954


--------------------------------------------------------------------------------------------------------




----------------------------------------- Iteration    6(   3)  ---------------------------------------


     EDDAV:  cpu time    0.0051: real time    0.0052
       DOS:  cpu time    0.0001: real time    0.0001
    CHARGE:  cpu time    0.0041: real time    0.0042
    MIXING:  cpu time    0.0003: real time    0.0003
    --------------------------------------------
      LOOP:  cpu time    0.0099: real time    0.0130

 eigenvalue-minimisations  :    25
 total energy-change (2. order) :-0.3186860E-06  (-0.3189917E-06)
 number of electron      32.0000043 magnetization 
 augmentation part       -1.6969898 magnetization 

 Broyden mixing:
  rms(total) = 0.11624E-01    rms(broyden)= 0.11611E-01
  rms(prec ) = 0.17864E-01
  weight for this iteration     100.00

 Free energy of the ion-electron system (eV)
  ---------------------------------------------------
  alpha Z        PSCENC =        12.09607781
  Ewald energy   TEWEN  =      -882.34167567
  -Hartree energ DENC   =       -74.60715222
  -exchange      EXHF   =         0.00000000
  -V(xc)+E(xc)   XCENC  =       -72.55579475
  PAW double counting   =      3851.90973542    -3711.90969382
  entropy T*S    EENTRO =        -0.00000003
  eigenvalues    EBANDS =        19.32538076
  atomic energy  EATOM  =       824.48621262
  Solvation  Ediel_sol  =         0.00000000
  ---------------------------------------------------
  free energy    TOTEN  =       -33.59690987 eV

  energy without entropy =      -33.59690984  energy(sigma->0) =      -33.59690986


--------------------------------------------------------------------------------------------------------




----------------------------------------- Iteration    6(   4)  ---------------------------------------


    POTLOK:  cpu time    0.0038: real time    0.0038
    SETDIJ:  cpu time    0.0011: real time    0.0011
     EDDAV:  cpu time    0.0053: real time    0.0053
       DOS:  cpu time    0.0001: real time    0.0001
    CHARGE:  cpu time    0.0041: real time    0.0041
    MIXING:  cpu time    0.0004: real time    0.0004
    --------------------------------------------
      LOOP:  cpu time    0.0151: real time    0.0178

 eigenvalue-minimisations  :    25
 total energy-change (2. order) : 0.1943521E-03  (-0.7331213E-05)
 number of electron      32.0000043 magnetization 
 augmentation part       -1.6974673 magnetization 

 Broyden mixing:
  rms(total) = 0.61882E-02    rms(broyden)= 0.61875E-02
  rms(prec ) = 0.10179E-01
  weight for this iteration     100.00

 eigenvalues of (default mixing * dielectric matrix)
  average eigenvalue GAMMA=   2.0905
  2.0905

 Free energy of the ion-electron system (eV)
  ---------------------------------------------------
  alpha Z        PSCENC =        12.09607781
  Ewald energy   TEWEN  =      -882.34167567
  -Hartree energ DENC   =       -74.49327270
  -exchange      EXHF   =         0.00000000
  -V(xc)+E(xc)   XCENC  =       -72.55869452
  PAW double counting   =      3869.18855438    -3729.19204137
  entropy T*S    EENTRO =        -0.00000002
  eigenvalues    EBANDS =        19.21812396
  atomic energy  EATOM  =       824.48621262
  Solvation  Ediel_sol  =         0.00000000
  ---------------------------------------------------
  free energy    TOTEN  =       -33.59671552 eV

  energy without entropy =      -33.59671549  energy(sigma->0) =      -33.59671550


--------------------------------------------------------------------------------------------------------




----------------------------------------- Iteration    6(   5)  ---------------------------------------


    POTLOK:  cpu time    0.0038: real time    0.0038
    SETDIJ:  cpu time    0.0011: real time    0.0011
     EDDAV:  cpu time    0.0053: real time    0.0053
       DOS:  cpu time    0.0001: real time    0.0001
    CHARGE:  cpu time    0.0044: real time    0.0044
    MIXING:  cpu time    0.0004: real time    0.0004
    --------------------------------------------
      LOOP:  cpu time    0.0154: real time    0.0178

 eigenvalue-minimisations  :    25
 total energy-change (2. order) : 0.1024131E-03  (-0.1526541E-04)
 number of electron      32.0000043 magnetization 
 augmentation part       -1.6982543 magnetization 

 Broyden mixing:
  rms(total) = 0.17421E-02    rms(broyden)= 0.17421E-02
  rms(prec ) = 0.18737E-02
  weight for this iteration     100.00

 eigenvalues of (default mixing * dielectric matrix)
  average eigenvalue GAMMA=   3.2751
  3.2751  3.2751

 Free energy of the ion-electron system (eV)
  ---------------------------------------------------
  alpha Z        PSCENC =        12.09607781
  Ewald energy   TEWEN  =      -882.34167567
  -Hartree energ DENC   =       -74.34027881
  -exchange      EXHF   =         0.00000000
  -V(xc)+E(xc)   XCENC  =       -72.56233166
  PAW double counting   =      3889.50226083    -3749.51213265
  entropy T*S    EENTRO =        -0.00000002
  eigenvalues    EBANDS =        19.07525446
  atomic energy  EATOM  =       824.48621262
  Solvation  Ediel_sol  =         0.00000000
  ---------------------------------------------------
  free energy    TOTEN  =       -33.59661310 eV

  energy without entropy =      -33.59661308  energy(sigma->0) =      -33.59661309


--------------------------------------------------------------------------------------------------------




----------------------------------------- Iteration    6(   6)  ---------------------------------------


    POTLOK:  cpu time    0.0038: real time    0.0038
    SETDIJ:  cpu time    0.0011: real time    0.0011
     EDDAV:  cpu time    0.0053: real time    0.0053
       DOS:  cpu time    0.0001: real time    0.0001
    --------------------------------------------
      LOOP:  cpu time    0.0106: real time    0.0131

 eigenvalue-minimisations  :    25
 total energy-change (2. order) :-0.8067589E-05  (-0.2017577E-05)
 number of electron      32.0000043 magnetization 
 augmentation part       -1.6982543 magnetization 

 Free energy of the ion-electron system (eV)
  ---------------------------------------------------
  alpha Z        PSCENC =        12.09607781
  Ewald energy   TEWEN  =      -882.34167567
  -Hartree energ DENC   =       -74.34761392
  -exchange      EXHF   =         0.00000000
  -V(xc)+E(xc)   XCENC  =       -72.56026434
  PAW double counting   =      3875.78394032    -3735.79834284
  entropy T*S    EENTRO =        -0.00000002
  eigenvalues    EBANDS =        19.08504486
  atomic energy  EATOM  =       824.48621262
  Solvation  Ediel_sol  =         0.00000000
  ---------------------------------------------------
  free energy    TOTEN  =       -33.59662117 eV

  energy without entropy =      -33.59662115  energy(sigma->0) =      -33.59662116


--------------------------------------------------------------------------------------------------------




 average (electrostatic) potential at core
  the test charge radii are     0.9892
  (the norm of the test charge is              1.0000)
       1 -83.9320       2 -83.9320       3 -83.9320       4 -83.9320       5 -83.9320
       6 -83.9320       7 -83.9320       8 -83.9320
 
 
 
 E-fermi :   5.5290     XC(G=0):  -8.7767     alpha+bet :-10.7729


 k-point     1 :       0.0000    0.0000    0.0000
  band No.  band energies     occupation 
      1      -6.1974      2.00000
      2      -2.4088      2.00000
      3      -2.4088      2.00000
      4      -2.4088      2.00000
      5      -2.4088      2.00000
      6      -2.4088      2.00000
      7      -2.4088      2.00000
      8       2.4712      2.00000
      9       2.4712      2.00000
     10       2.4712      2.00000
     11       2.4712      2.00000
     12       2.4712      2.00000
     13       2.4712      2.00000
     14       5.1217      2.00000
     15       5.1217      2.00000
     16       5.1217      2.00000
     17       5.9445      0.00000
     18       5.9445      0.00000
     19       5.9445      0.00000
     20       5.9445      0.00000
     21       5.9445      0.00000
     22       5.9445      0.00000
     23       7.3366      0.00000
     24       7.5278      0.00000
     25       7.5278      0.00000


--------------------------------------------------------------------------------------------------------


 soft charge-density along one line, spin component           1
         0         1         2         3         4         5         6         7         8         9
 total charge-density along one line
 
 pseudopotential strength for first ion, spin component:           1
 18.489  25.796  -0.000   0.000  -0.000  -0.000   0.000  -0.000
 25.796  35.995  -0.000   0.000  -0.000  -0.000   0.000  -0.000
 -0.000  -0.000   4.187   0.000   0.000   7.803   0.000   0.000
  0.000   0.000   0.000   4.187  -0.000   0.000   7.803  -0.000
 -0.000  -0.000   0.000  -0.000   4.187   0.000  -0.000   7.803
 -0.000  -0.000   7.803   0.000   0.000  14.552   0.000   0.000
  0.000   0.000   0.000   7.803  -0.000   0.000  14.552  -0.000
 -0.000  -0.000   0.000  -0.000   7.803   0.000  -0.000  14.552
 total augmentation occupancy for first ion, spin component:           1
  5.745  -2.177  -0.000  -0.000   0.000   0.000   0.000   0.000
 -2.177   0.853  -0.000   0.000  -0.000  -0.000  -0.000  -0.000
 -0.000  -0.000   3.332   0.000  -0.000  -0.790  -0.000   0.000
 -0.000   0.000   0.000   3.332   0.000  -0.000  -0.790   0.000
  0.000  -0.000  -0.000   0.000   3.332   0.000   0.000  -0.790
  0.000  -0.000  -0.790  -0.000   0.000   0.198  -0.000  -0.000
  0.000  -0.000  -0.000  -0.790   0.000  -0.000   0.198  -0.000
  0.000  -0.000   0.000   0.000  -0.790  -0.000  -0.000   0.198


------------------------ aborting loop because EDIFF is reached ----------------------------------------


    CHARGE:  cpu time    0.0042: real time    0.0042
    FORLOC:  cpu time    0.0003: real time    0.0003
    FORNL :  cpu time    0.0013: real time    0.0013
    STRESS:  cpu time    0.0030: real time    0.0030
    FORCOR:  cpu time    0.0038: real time    0.0038
    FORHAR:  cpu time    0.0010: real time    0.0010
    MIXING:  cpu time    0.0004: real time    0.0004
    OFIELD:  cpu time    0.0000: real time    0.0000

  FORCE on cell =-STRESS in cart. coord.  units (eV):
  Direction    XX          YY          ZZ          XY          YZ          ZX
  --------------------------------------------------------------------------------------
  Alpha Z    12.09608    12.09608    12.09608
  Ewald    -294.11439  -294.11439  -294.11439    -0.00000     0.00000    -0.00000
  Hartree    24.77340    24.77340    24.77340    -0.00000    -0.00000    -0.00000
  E(xc)    -100.80249  -100.80249  -100.80249    -0.00000    -0.00000     0.00000
  Local    -128.67436  -128.67436  -128.67436     0.00000    -0.00000     0.00000
  n-local   297.89056   297.89056   297.89056    -0.00000     0.00000    -0.00000
  augment   -43.24403   -43.24403   -43.24403     0.00000    -0.00000     0.00000
  Kinetic   232.05614   232.05614   232.05614    -0.00000     0.00000    -0.00000
  Fock        0.00000     0.00000     0.00000     0.00000     0.00000     0.00000
  -------------------------------------------------------------------------------------
  Total      -0.01909    -0.01909    -0.01909    -0.00000    -0.00000     0.00000
  in kB      -0.17174    -0.17174    -0.17174    -0.00000    -0.00000     0.00000
  external pressure =       -0.17 kB  Pullay stress =        0.00 kB


 VOLUME and BASIS-vectors are now :
 -----------------------------------------------------------------------------
  energy-cutoff  :      240.00
  volume of cell :      178.11
      direct lattice vectors                 reciprocal lattice vectors
     5.626391767 -0.000000000  0.000000000     0.177733802  0.000000000 -0.000000000
    -0.000000000  5.626391767 -0.000000000     0.000000000  0.177733802  0.000000000
     0.000000000 -0.000000000  5.626391767    -0.000000000  0.000000000  0.177733802

  length of vectors
     5.626391767  5.626391767  5.626391767     0.177733802  0.177733802  0.177733802


 FORCES acting on ions
    electron-ion (+dipol)            ewald-force                    non-local-force                 convergence-correction
 -----------------------------------------------------------------------------------------------
   0.147E-13 0.664E-16 0.770E-14   0.107E-13 0.000E+00 -.355E-14   0.165E-23 0.496E-23 0.662E-23   0.446E-14 -.371E-14 -.456E-14
   0.157E-13 -.567E-14 -.660E-14   0.107E-13 0.000E+00 -.711E-14   0.951E-23 -.496E-23 0.455E-23   0.464E-14 -.585E-14 -.314E-14
   -.781E-14 0.126E-14 0.380E-12   0.107E-13 0.000E+00 -.711E-14   -.207E-23 0.827E-23 -.744E-23   -.838E-15 -.295E-14 -.414E-14
   0.906E-14 0.151E-12 0.197E-12   0.107E-13 0.000E+00 -.355E-14   -.414E-24 -.827E-23 -.182E-22   -.766E-15 -.475E-14 -.587E-14
   -.221E-13 0.128E-12 0.365E-15   -.145E-13 0.342E-15 0.283E-14   0.372E-23 -.827E-23 0.910E-23   -.547E-14 -.142E-14 0.946E-15
   -.334E-13 -.340E-12 0.425E-12   -.101E-13 0.843E-15 0.284E-14   -.662E-23 -.827E-23 -.744E-23   -.205E-14 0.354E-14 -.610E-16
   -.383E-13 -.109E-12 0.167E-12   -.105E-13 -.847E-15 0.433E-14   -.352E-23 0.165E-23 -.331E-23   -.202E-14 -.379E-15 0.829E-14
   -.249E-13 0.869E-13 -.906E-14   -.145E-13 -.347E-15 0.434E-14   0.744E-23 0.786E-23 0.662E-23   -.519E-14 0.226E-14 0.911E-14
 -----------------------------------------------------------------------------------------------
   -.871E-13 -.882E-13 0.116E-11   -.698E-14 -.855E-17 -.698E-14   0.972E-23 -.703E-23 -.951E-23   -.724E-14 -.133E-13 0.573E-15
 
 
 POSITION                                       TOTAL-FORCE (eV/Angst)
 -----------------------------------------------------------------------------------
     -0.00000      0.00000      0.00000         0.000000      0.000000      0.000000
      0.00000      2.81320      2.81320        -0.000000      0.000000      0.000000
      2.81320     -0.00000      2.81320         0.000000      0.000000      0.000000
      2.81320      2.81320      0.00000         0.000000      0.000000      0.000000
      1.40660      1.40660      1.40660        -0.000000      0.000000     -0.000000
      4.21979      4.21979      1.40660        -0.000000     -0.000000     -0.000000
      4.21979      1.40660      4.21979        -0.000000     -0.000000     -0.000000
      1.40660      4.21979      4.21979        -0.000000     -0.000000     -0.000000
 -----------------------------------------------------------------------------------
    total drift:                               -0.000000     -0.000000      0.000000


--------------------------------------------------------------------------------------------------------



  FREE ENERGIE OF THE ION-ELECTRON SYSTEM (eV)
  ---------------------------------------------------
  free  energy   TOTEN  =       -33.59662117 eV

  energy  without entropy=      -33.59662115  energy(sigma->0) =      -33.59662116
 
 d Force = 0.0000000E+00[ 0.000E+00, 0.000E+00]  d Energy = 0.7625524E-03-0.763E-03
 d Force = 0.0000000E+00[ 0.000E+00, 0.000E+00]  d Ewald  = 0.1175581E+01-0.118E+01


--------------------------------------------------------------------------------------------------------


    POTLOK:  cpu time    0.0052: real time    0.0052


--------------------------------------------------------------------------------------------------------




--------------------------------------------------------------------------------------------------------


  
 reached required accuracy - stopping structural energy minimisation
 writing wavefunctions
     LOOP+:  cpu time    0.0943: real time    0.1202
    4ORBIT:  cpu time    0.0000: real time    0.0000

 total amount of memory used by VASP on root node    30622. kBytes
========================================================================

   base      :      30000. kBytes
   nonl-proj :         33. kBytes
   fftplans  :        243. kBytes
   grid      :        329. kBytes
   one-center:          3. kBytes
   wavefun   :         14. kBytes
 
  
  
 General timing and accounting informations for this job:
 ========================================================
  
                  Total CPU time used (sec):        2.602
                            User time (sec):        2.046
                          System time (sec):        0.556
                         Elapsed time (sec):        4.116
  
                   Maximum memory used (kb):      121600.
                   Average memory used (kb):           0.
  
                          Minor page faults:        17372
                          Major page faults:           40
                 Voluntary context switches:         2283
