<?xml version="1.0" encoding="ISO-8859-1"?>
<modeling>
 <generator>
  <i name="program" type="string">vasp </i>
  <i name="version" type="string">5.4.1  </i>
  <i name="subversion" type="string">05Feb16 (build Feb 24 2020 14:33:01) complex                          parallel </i>
  <i name="platform" type="string">IFC91_ompi </i>
  <i name="date" type="string">2020 02 27 </i>
  <i name="time" type="string">21:36:49 </i>
 </generator>
 <incar>
  <i type="string" name="SYSTEM"> diamond Si</i>
  <i type="int" name="ISTART">     0</i>
  <i type="string" name="PREC">accurate</i>
  <i type="int" name="NSIM">     4</i>
  <i type="int" name="ICHARG">     2</i>
  <i type="int" name="NELM">    60</i>
  <i type="int" name="NELMDL">     3</i>
  <i type="int" name="NELMIN">     0</i>
  <i type="int" name="IBRION">     2</i>
  <i name="EDIFF">      0.00010000</i>
  <i name="EDIFFG">     -0.01000000</i>
  <i type="int" name="NSW">     9</i>
  <i type="int" name="ISIF">     3</i>
  <i name="ENCUT">    240.00000000</i>
  <i name="POTIM">      1.00000000</i>
  <i type="logical" name="LPLANE"> F  </i>
  <i type="int" name="ISMEAR">     0</i>
  <i name="SIGMA">      0.10000000</i>
  <v type="int" name="KPOINT_BSE">    -1     0     0     0</v>
  <i type="int" name="NELM">    60</i>
 </incar>
 <kpoints>
  <generation param="Monkhorst-Pack">
   <v type="int" name="divisions">       1        1        1 </v>
   <v name="usershift">      0.00000000       0.00000000       0.00000000 </v>
   <v name="genvec1">      1.00000000       0.00000000       0.00000000 </v>
   <v name="genvec2">      0.00000000       1.00000000       0.00000000 </v>
   <v name="genvec3">      0.00000000       0.00000000       1.00000000 </v>
   <v name="shift">      0.00000000       0.00000000       0.00000000 </v>
  </generation>
  <varray name="kpointlist" >
   <v>       0.00000000       0.00000000       0.00000000 </v>
  </varray>
  <varray name="weights" >
   <v>       1.00000000 </v>
  </varray>
 </kpoints>
 <parameters>
  <separator name="general" >
   <i type="string" name="SYSTEM">diamond Si</i>
   <i type="logical" name="LCOMPAT"> F  </i>
  </separator>
  <separator name="electronic" >
   <i type="string" name="PREC">accura</i>
   <i name="ENMAX">    240.00000000</i>
   <i name="ENAUG">    322.06900000</i>
   <i name="EDIFF">      0.00010000</i>
   <i type="int" name="IALGO">    38</i>
   <i type="int" name="IWAVPR">    11</i>
   <i type="int" name="NBANDS">    25</i>
   <i name="NELECT">     32.00000000</i>
   <i type="int" name="TURBO">     0</i>
   <i type="int" name="IRESTART">     0</i>
   <i type="int" name="NREBOOT">     0</i>
   <i type="int" name="NMIN">     0</i>
   <i name="EREF">      0.00000000</i>
   <separator name="electronic smearing" >
    <i type="int" name="ISMEAR">     0</i>
    <i name="SIGMA">      0.10000000</i>
    <i name="KSPACING">      0.50000000</i>
    <i type="logical" name="KGAMMA"> T  </i>
   </separator>
   <separator name="electronic projectors" >
    <i type="logical" name="LREAL"> F  </i>
    <v name="ROPT">      0.00000000</v>
    <i type="int" name="LMAXPAW">  -100</i>
    <i type="int" name="LMAXMIX">     2</i>
    <i type="logical" name="NLSPLINE"> F  </i>
   </separator>
   <separator name="electronic startup" >
    <i type="int" name="ISTART">     0</i>
    <i type="int" name="ICHARG">     2</i>
    <i type="int" name="INIWAV">     1</i>
   </separator>
   <separator name="electronic spin" >
    <i type="int" name="ISPIN">     1</i>
    <i type="logical" name="LNONCOLLINEAR"> F  </i>
    <v name="MAGMOM">      1.00000000      1.00000000      1.00000000      1.00000000      1.00000000      1.00000000      1.00000000      1.00000000</v>
    <i name="NUPDOWN">     -1.00000000</i>
    <i type="logical" name="LSORBIT"> F  </i>
    <v name="SAXIS">      0.00000000      0.00000000      1.00000000</v>
    <i type="logical" name="LSPIRAL"> F  </i>
    <v name="QSPIRAL">      0.00000000      0.00000000      0.00000000</v>
    <i type="logical" name="LZEROZ"> F  </i>
   </separator>
   <separator name="electronic exchange-correlation" >
    <i type="logical" name="LASPH"> F  </i>
    <i type="logical" name="LMETAGGA"> F  </i>
   </separator>
   <separator name="electronic convergence" >
    <i type="int" name="NELM">    60</i>
    <i type="int" name="NELMDL">     3</i>
    <i type="int" name="NELMIN">     0</i>
    <i name="ENINI">    240.00000000</i>
    <separator name="electronic convergence detail" >
     <i type="logical" name="LDIAG"> T  </i>
     <i type="logical" name="LSUBROT"> F  </i>
     <i name="WEIMIN">      0.00100000</i>
     <i name="EBREAK">      0.00000100</i>
     <i name="DEPER">      0.30000000</i>
     <i type="int" name="NRMM">     4</i>
     <i name="TIME">      0.40000000</i>
    </separator>
   </separator>
   <separator name="electronic mixer" >
    <i name="AMIX">      0.40000000</i>
    <i name="BMIX">      1.00000000</i>
    <i name="AMIN">      0.10000000</i>
    <i name="AMIX_MAG">      1.60000000</i>
    <i name="BMIX_MAG">      1.00000000</i>
    <separator name="electronic mixer details" >
     <i type="int" name="IMIX">     4</i>
     <i type="logical" name="MIXFIRST"> F  </i>
     <i type="int" name="MAXMIX">   -45</i>
     <i name="WC">    100.00000000</i>
     <i type="int" name="INIMIX">     1</i>
     <i type="int" name="MIXPRE">     1</i>
     <i type="int" name="MREMOVE">     5</i>
    </separator>
   </separator>
   <separator name="electronic dipolcorrection" >
    <i type="logical" name="LDIPOL"> F  </i>
    <i type="logical" name="LMONO"> F  </i>
    <i type="int" name="IDIPOL">     0</i>
    <i name="EPSILON">      1.00000000</i>
    <v name="DIPOL">   -100.00000000   -100.00000000   -100.00000000</v>
    <i name="EFIELD">      0.00000000</i>
   </separator>
  </separator>
  <separator name="grids" >
   <i type="int" name="NGX">    28</i>
   <i type="int" name="NGY">    28</i>
   <i type="int" name="NGZ">    28</i>
   <i type="int" name="NGXF">    56</i>
   <i type="int" name="NGYF">    56</i>
   <i type="int" name="NGZF">    56</i>
   <i type="logical" name="ADDGRID"> F  </i>
  </separator>
  <separator name="ionic" >
   <i type="int" name="NSW">     9</i>
   <i type="int" name="IBRION">     2</i>
   <i type="int" name="ISIF">     3</i>
   <i name="PSTRESS">      0.00000000</i>
   <i name="EDIFFG">     -0.01000000</i>
   <i type="int" name="NFREE">     1</i>
   <i name="POTIM">      1.00000000</i>
   <i name="SMASS">     -3.00000000</i>
   <i name="SCALEE">      1.00000000</i>
  </separator>
  <separator name="ionic md" >
   <i name="TEBEG">      0.00010000</i>
   <i name="TEEND">      0.00010000</i>
   <i type="int" name="NBLOCK">     1</i>
   <i type="int" name="KBLOCK">     9</i>
   <i type="int" name="NPACO">   256</i>
   <i name="APACO">     16.00000000</i>
  </separator>
  <separator name="symmetry" >
   <i type="int" name="ISYM">     2</i>
   <i name="SYMPREC">      0.00001000</i>
  </separator>
  <separator name="dos" >
   <i type="logical" name="LORBIT"> F  </i>
   <v name="RWIGS">     -1.00000000</v>
   <i type="int" name="NEDOS">   301</i>
   <i name="EMIN">     10.00000000</i>
   <i name="EMAX">    -10.00000000</i>
   <i name="EFERMI">      0.00000000</i>
  </separator>
  <separator name="writing" >
   <i type="int" name="NWRITE">     2</i>
   <i type="logical" name="LWAVE"> T  </i>
   <i type="logical" name="LCHARG"> T  </i>
   <i type="logical" name="LPARD"> F  </i>
   <i type="logical" name="LVTOT"> F  </i>
   <i type="logical" name="LVHAR"> F  </i>
   <i type="logical" name="LELF"> F  </i>
   <i type="logical" name="LOPTICS"> F  </i>
   <v name="STM">      0.00000000      0.00000000      0.00000000      0.00000000      0.00000000      0.00000000      0.00000000</v>
  </separator>
  <separator name="performance" >
   <i type="int" name="NPAR">     5</i>
   <i type="int" name="NSIM">     4</i>
   <i type="int" name="NBLK">    -1</i>
   <i type="logical" name="LPLANE"> F  </i>
   <i type="logical" name="LSCALAPACK"> T  </i>
   <i type="logical" name="LSCAAWARE"> F  </i>
   <i type="logical" name="LSCALU"> F  </i>
   <i type="logical" name="LASYNC"> F  </i>
   <i type="logical" name="LORBITALREAL"> F  </i>
  </separator>
  <separator name="miscellaneous" >
   <i type="int" name="IDIOT">     3</i>
   <i type="logical" name="LMUSIC"> F  </i>
   <v name="POMASS">     28.08500000</v>
   <v name="DARWINR">      0.00000000</v>
   <v name="DARWINV">      1.00000000</v>
   <i type="logical" name="LCORR"> T  </i>
  </separator>
  <i type="logical" name="GGA_COMPAT"> T  </i>
  <i type="logical" name="LBERRY"> F  </i>
  <i type="int" name="ICORELEVEL">     0</i>
  <i type="logical" name="LDAU"> F  </i>
  <i type="int" name="I_CONSTRAINED_M">     0</i>
  <separator name="electronic exchange-correlation" >
   <i type="string" name="GGA">--</i>
   <i type="int" name="VOSKOWN">     0</i>
   <i type="logical" name="LHFCALC"> F  </i>
   <i type="string" name="PRECFOCK"></i>
   <i type="logical" name="LSYMGRAD"> F  </i>
   <i type="logical" name="LHFONE"> F  </i>
   <i type="logical" name="LRHFCALC"> F  </i>
   <i type="logical" name="LTHOMAS"> F  </i>
   <i type="logical" name="LMODELHF"> F  </i>
   <i name="ENCUT4O">     -1.00000000</i>
   <i type="int" name="EXXOEP">     0</i>
   <i type="int" name="FOURORBIT">     0</i>
   <i name="AEXX">      0.00000000</i>
   <i name="HFALPHA">      0.00000000</i>
   <i name="MCALPHA">      0.00000000</i>
   <i name="ALDAX">      1.00000000</i>
   <i name="AGGAX">      1.00000000</i>
   <i name="ALDAC">      1.00000000</i>
   <i name="AGGAC">      1.00000000</i>
   <i type="int" name="NKREDX">     1</i>
   <i type="int" name="NKREDY">     1</i>
   <i type="int" name="NKREDZ">     1</i>
   <i type="logical" name="SHIFTRED"> F  </i>
   <i type="logical" name="ODDONLY"> F  </i>
   <i type="logical" name="EVENONLY"> F  </i>
   <i type="int" name="LMAXFOCK">     0</i>
   <i type="int" name="NMAXFOCKAE">     0</i>
   <i type="logical" name="LFOCKAEDFT"> F  </i>
   <i name="HFSCREEN">      0.00000000</i>
   <i name="HFSCREENC">      0.00000000</i>
   <i type="int" name="NBANDSGWLOW">     0</i>
  </separator>
  <separator name="vdW DFT" >
   <i type="logical" name="LUSE_VDW"> F  </i>
   <i name="Zab_VDW">     -0.84910000</i>
   <i name="PARAM1">      0.12340000</i>
   <i name="PARAM2">      1.00000000</i>
   <i name="PARAM3">      0.00000000</i>
  </separator>
  <separator name="model GW" >
   <i type="int" name="MODEL_GW">     0</i>
   <i name="MODEL_EPS0">     12.01436085</i>
   <i name="MODEL_ALPHA">      1.00000000</i>
  </separator>
  <separator name="linear response parameters" >
   <i type="logical" name="LEPSILON"> F  </i>
   <i type="logical" name="LRPA"> F  </i>
   <i type="logical" name="LNABLA"> F  </i>
   <i type="logical" name="LVEL"> F  </i>
   <i type="int" name="KINTER">     0</i>
   <i name="CSHIFT">      0.10000000</i>
   <i name="OMEGAMAX">     -1.00000000</i>
   <i name="DEG_THRESHOLD">      0.00200000</i>
  </separator>
  <separator name="orbital magnetization" >
   <i type="logical" name="NUCIND"> F  </i>
   <v name="MAGPOS">      0.00000000      0.00000000      0.00000000</v>
   <i type="logical" name="LNICSALL"> T  </i>
   <i type="logical" name="ORBITALMAG"> F  </i>
   <i type="logical" name="LMAGBLOCH"> F  </i>
   <i type="logical" name="LCHIMAG"> F  </i>
   <i type="logical" name="LGAUGE"> T  </i>
   <i type="int" name="MAGATOM">     0</i>
   <v name="MAGDIPOL">      0.00000000      0.00000000      0.00000000</v>
   <v name="AVECCONST">      0.00000000      0.00000000      0.00000000</v>
  </separator>
  <separator name="response functions" >
   <i type="logical" name="LADDER"> F  </i>
   <i type="logical" name="LFXC"> F  </i>
   <i type="logical" name="LHARTREE"> T  </i>
   <i type="int" name="IBSE">     0</i>
   <v type="int" name="KPOINT">    -1     0     0     0</v>
   <i type="logical" name="LTCTE"> F  </i>
   <i type="logical" name="LTETE"> F  </i>
   <i type="logical" name="LTRIPLET"> F  </i>
   <i type="logical" name="LFXCEPS"> F  </i>
   <i type="logical" name="LFXHEG"> F  </i>
   <i type="int" name="NATURALO">     0</i>
   <i type="logical" name="L2ORDER"> F  </i>
   <i type="logical" name="LUSEW"> F  </i>
   <i name="ENCUTGW">     -2.00000000</i>
   <i name="ENCUTGWSOFT">     -2.00000000</i>
   <i name="ENCUTLF">     -1.00000000</i>
   <i type="int" name="LMAXMP2">    -1</i>
   <i name="SCISSOR">      0.00000000</i>
   <i type="int" name="NOMEGA">     0</i>
   <i type="int" name="NOMEGAR">     0</i>
   <i type="int" name="NBANDSGW">    -1</i>
   <i type="int" name="NBANDSO">    -1</i>
   <i type="int" name="NBANDSV">    -1</i>
   <i type="int" name="NELM">    60</i>
   <i type="int" name="NELMHF">     1</i>
   <i type="int" name="DIM">     3</i>
   <i type="int" name="ANTIRES">     0</i>
   <i name="OMEGAMAX">    -30.00000000</i>
   <i name="OMEGAMIN">    -30.00000000</i>
   <i name="OMEGATL">   -200.00000000</i>
   <i type="int" name="OMEGAGRID">     0</i>
   <i name="CSHIFT">     -0.10000000</i>
   <i type="logical" name="SELFENERGY"> F  </i>
   <i type="logical" name="LSPECTRAL"> F  </i>
   <i type="logical" name="LSPECTRALGW"> F  </i>
   <i type="logical" name="LSINGLES"> F  </i>
   <i type="logical" name="LFERMIGW"> F  </i>
   <i type="logical" name="ODDONLYGW"> F  </i>
   <i type="logical" name="EVENONLYGW"> F  </i>
   <i type="int" name="NKREDLFX">     1</i>
   <i type="int" name="NKREDLFY">     1</i>
   <i type="int" name="NKREDLFZ">     1</i>
   <i type="int" name="MAXMEM">  1800</i>
   <i type="int" name="TELESCOPE">     0</i>
   <i type="int" name="TAUPAR">     1</i>
   <i type="int" name="OMEGAPAR">    -1</i>
   <i name="LAMBDA">      1.00000000</i>
  </separator>
  <separator name="External order field" >
   <i name="OFIELD_KAPPA">      0.00000000</i>
   <v name="OFIELD_K">      0.00000000      0.00000000      0.00000000</v>
   <i name="OFIELD_Q6_NEAR">      0.00000000</i>
   <i name="OFIELD_Q6_FAR">      0.00000000</i>
   <i name="OFIELD_A">      0.00000000</i>
  </separator>
 </parameters>
 <atominfo>
  <atoms>       8 </atoms>
  <types>       1 </types>
  <array name="atoms" >
   <dimension dim="1">ion</dimension>
   <field type="string">element</field>
   <field type="int">atomtype</field>
   <set>
    <rc><c>Si</c><c>   1</c></rc>
    <rc><c>Si</c><c>   1</c></rc>
    <rc><c>Si</c><c>   1</c></rc>
    <rc><c>Si</c><c>   1</c></rc>
    <rc><c>Si</c><c>   1</c></rc>
    <rc><c>Si</c><c>   1</c></rc>
    <rc><c>Si</c><c>   1</c></rc>
    <rc><c>Si</c><c>   1</c></rc>
   </set>
  </array>
  <array name="atomtypes" >
   <dimension dim="1">type</dimension>
   <field type="int">atomspertype</field>
   <field type="string">element</field>
   <field>mass</field>
   <field>valence</field>
   <field type="string">pseudopotential</field>
   <set>
    <rc><c>   8</c><c>Si</c><c>     28.08500000</c><c>      4.00000000</c><c>  PAW_PBE Si 05Jan2001                  </c></rc>
   </set>
  </array>
 </atominfo>
 <structure name="initialpos" >
  <crystal>
   <varray name="basis" >
    <v>       5.43100000       0.00000000       0.00000000 </v>
    <v>       0.00000000       5.43100000       0.00000000 </v>
    <v>       0.00000000       0.00000000       5.43100000 </v>
   </varray>
   <i name="volume">    160.19147799 </i>
   <varray name="rec_basis" >
    <v>       0.18412815       0.00000000       0.00000000 </v>
    <v>       0.00000000       0.18412815       0.00000000 </v>
    <v>       0.00000000       0.00000000       0.18412815 </v>
   </varray>
  </crystal>
  <varray name="positions" >
   <v>       0.00000000       0.00000000       0.00000000 </v>
   <v>       0.00000000       0.50000000       0.50000000 </v>
   <v>       0.50000000       0.00000000       0.50000000 </v>
   <v>       0.50000000       0.50000000       0.00000000 </v>
   <v>       0.25000000       0.25000000       0.25000000 </v>
   <v>       0.75000000       0.75000000       0.25000000 </v>
   <v>       0.75000000       0.25000000       0.75000000 </v>
   <v>       0.25000000       0.75000000       0.75000000 </v>
  </varray>
 </structure>
 <calculation>
  <scstep>
   <time name="dav">    0.19    0.20</time>
   <time name="total">    0.20    0.22</time>
   <energy>
    <i name="alphaZ">     13.44915721 </i>
    <i name="ewald">   -914.08579262 </i>
    <i name="hartreedc">    -44.03749844 </i>
    <i name="XCdc">    -74.41614067 </i>
    <i name="pawpsdc">    704.99039692 </i>
    <i name="pawaedc">   -564.24414232 </i>
    <i name="eentropy">     -0.03885717 </i>
    <i name="bandstr">     83.27686046 </i>
    <i name="atom">    824.48621262 </i>
    <i name="e_fr_energy">     29.38019600 </i>
    <i name="e_wo_entrp">     29.41905317 </i>
    <i name="e_0_energy">     29.39962458 </i>
   </energy>
  </scstep>
  <scstep>
   <time name="dav">    0.01    0.01</time>
   <time name="total">    0.01    0.03</time>
   <energy>
    <i name="e_fr_energy">    -30.47312917 </i>
    <i name="e_wo_entrp">    -30.47310770 </i>
    <i name="e_0_energy">    -30.47311844 </i>
   </energy>
  </scstep>
  <scstep>
   <time name="dav">    0.01    0.01</time>
   <time name="total">    0.02    0.02</time>
   <energy>
    <i name="e_fr_energy">    -34.39637885 </i>
    <i name="e_wo_entrp">    -34.39637885 </i>
    <i name="e_0_energy">    -34.39637885 </i>
   </energy>
  </scstep>
  <scstep>
   <time name="dav">    0.01    0.01</time>
   <time name="total">    0.02    0.02</time>
   <energy>
    <i name="e_fr_energy">    -33.44824248 </i>
    <i name="e_wo_entrp">    -33.44824245 </i>
    <i name="e_0_energy">    -33.44824246 </i>
   </energy>
  </scstep>
  <scstep>
   <time name="dav">    0.01    0.01</time>
   <time name="total">    0.02    0.02</time>
   <energy>
    <i name="e_fr_energy">    -33.01352604 </i>
    <i name="e_wo_entrp">    -33.01321694 </i>
    <i name="e_0_energy">    -33.01337149 </i>
   </energy>
  </scstep>
  <scstep>
   <time name="dav">    0.01    0.01</time>
   <time name="total">    0.02    0.02</time>
   <energy>
    <i name="e_fr_energy">    -33.03799293 </i>
    <i name="e_wo_entrp">    -33.03789054 </i>
    <i name="e_0_energy">    -33.03794173 </i>
   </energy>
  </scstep>
  <scstep>
   <time name="dav">    0.01    0.01</time>
   <time name="total">    0.02    0.02</time>
   <energy>
    <i name="e_fr_energy">    -33.04580293 </i>
    <i name="e_wo_entrp">    -33.04575667 </i>
    <i name="e_0_energy">    -33.04577980 </i>
   </energy>
  </scstep>
  <scstep>
   <time name="dav">    0.01    0.01</time>
   <time name="total">    0.02    0.02</time>
   <energy>
    <i name="e_fr_energy">    -33.04659132 </i>
    <i name="e_wo_entrp">    -33.04655137 </i>
    <i name="e_0_energy">    -33.04657134 </i>
   </energy>
  </scstep>
  <scstep>
   <time name="dav">    0.01    0.01</time>
   <time name="total">    0.01    0.01</time>
   <energy>
    <i name="alphaZ">     13.44915721 </i>
    <i name="ewald">   -914.08579262 </i>
    <i name="hartreedc">    -69.60175085 </i>
    <i name="XCdc">    -70.63582527 </i>
    <i name="pawpsdc">   4611.59986464 </i>
    <i name="pawaedc">  -4472.00307475 </i>
    <i name="eentropy">     -0.00004072 </i>
    <i name="bandstr">     43.74464119 </i>
    <i name="atom">    824.48621262 </i>
    <i name="e_fr_energy">    -33.04660856 </i>
    <i name="e_wo_entrp">    -33.04656784 </i>
    <i name="e_0_energy">    -33.04658820 </i>
   </energy>
  </scstep>
  <structure>
   <crystal>
    <varray name="basis" >
     <v>       5.43100000       0.00000000       0.00000000 </v>
     <v>       0.00000000       5.43100000       0.00000000 </v>
     <v>       0.00000000       0.00000000       5.43100000 </v>
    </varray>
    <i name="volume">    160.19147799 </i>
    <varray name="rec_basis" >
     <v>       0.18412815       0.00000000       0.00000000 </v>
     <v>       0.00000000       0.18412815       0.00000000 </v>
     <v>       0.00000000       0.00000000       0.18412815 </v>
    </varray>
   </crystal>
   <varray name="positions" >
    <v>       0.00000000       0.00000000       0.00000000 </v>
    <v>       0.00000000       0.50000000       0.50000000 </v>
    <v>       0.50000000       0.00000000       0.50000000 </v>
    <v>       0.50000000       0.50000000       0.00000000 </v>
    <v>       0.25000000       0.25000000       0.25000000 </v>
    <v>       0.75000000       0.75000000       0.25000000 </v>
    <v>       0.75000000       0.25000000       0.75000000 </v>
    <v>       0.25000000       0.75000000       0.75000000 </v>
   </varray>
  </structure>
  <varray name="forces" >
   <v>      -0.00000000       0.00000000       0.00000000 </v>
   <v>       0.00000000      -0.00000000      -0.00000000 </v>
   <v>      -0.00000000      -0.00000000      -0.00000000 </v>
   <v>       0.00000000       0.00000000      -0.00000000 </v>
   <v>      -0.00000000      -0.00000000      -0.00000000 </v>
   <v>       0.00000000      -0.00000000      -0.00000000 </v>
   <v>      -0.00000000       0.00000000       0.00000000 </v>
   <v>       0.00000000      -0.00000000       0.00000000 </v>
  </varray>
  <varray name="stress" >
   <v>     107.52836032      -0.00000000       0.00000000 </v>
   <v>      -0.00000000     107.52836032      -0.00000000 </v>
   <v>       0.00000000      -0.00000000     107.52836032 </v>
  </varray>
  <energy>
   <i name="e_fr_energy">    -33.04660856 </i>
   <i name="e_wo_entrp">    -33.04658820 </i>
   <i name="e_0_energy">     -0.00004072 </i>
  </energy>
  <time name="totalsc">    0.49    0.67</time>
 </calculation>
 <calculation>
  <scstep>
   <time name="dav">    0.01    0.01</time>
   <time name="total">    0.01    0.02</time>
   <energy>
    <i name="alphaZ">      9.32923325 </i>
    <i name="ewald">   -809.16530424 </i>
    <i name="hartreedc">    -61.60322541 </i>
    <i name="XCdc">    -77.91751629 </i>
    <i name="pawpsdc">   4618.06772014 </i>
    <i name="pawaedc">  -4478.46870649 </i>
    <i name="eentropy">     -0.00000000 </i>
    <i name="bandstr">    -58.11756802 </i>
    <i name="atom">    824.48621262 </i>
    <i name="e_fr_energy">    -33.38915444 </i>
    <i name="e_wo_entrp">    -33.38915443 </i>
    <i name="e_0_energy">    -33.38915443 </i>
   </energy>
  </scstep>
  <scstep>
   <time name="dav">    0.01    0.01</time>
   <time name="total">    0.01    0.04</time>
   <energy>
    <i name="e_fr_energy">    -33.53814081 </i>
    <i name="e_wo_entrp">    -33.53814081 </i>
    <i name="e_0_energy">    -33.53814081 </i>
   </energy>
  </scstep>
  <scstep>
   <time name="dav">    0.01    0.01</time>
   <time name="total">    0.01    0.05</time>
   <energy>
    <i name="e_fr_energy">    -33.54112621 </i>
    <i name="e_wo_entrp">    -33.54112621 </i>
    <i name="e_0_energy">    -33.54112621 </i>
   </energy>
  </scstep>
  <scstep>
   <time name="dav">    0.01    0.01</time>
   <time name="total">    0.02    0.06</time>
   <energy>
    <i name="e_fr_energy">    -31.91127872 </i>
    <i name="e_wo_entrp">    -31.91127872 </i>
    <i name="e_0_energy">    -31.91127872 </i>
   </energy>
  </scstep>
  <scstep>
   <time name="dav">    0.01    0.01</time>
   <time name="total">    0.02    0.06</time>
   <energy>
    <i name="e_fr_energy">    -31.01724735 </i>
    <i name="e_wo_entrp">    -31.01724735 </i>
    <i name="e_0_energy">    -31.01724735 </i>
   </energy>
  </scstep>
  <scstep>
   <time name="dav">    0.01    0.01</time>
   <time name="total">    0.02    0.07</time>
   <energy>
    <i name="e_fr_energy">    -31.03088726 </i>
    <i name="e_wo_entrp">    -31.03088726 </i>
    <i name="e_0_energy">    -31.03088726 </i>
   </energy>
  </scstep>
  <scstep>
   <time name="dav">    0.01    0.01</time>
   <time name="total">    0.02    0.06</time>
   <energy>
    <i name="e_fr_energy">    -31.69926509 </i>
    <i name="e_wo_entrp">    -31.54499077 </i>
    <i name="e_0_energy">    -31.62212793 </i>
   </energy>
  </scstep>
  <scstep>
   <time name="dav">    0.01    0.01</time>
   <time name="total">    0.02    0.06</time>
   <energy>
    <i name="e_fr_energy">    -31.72259426 </i>
    <i name="e_wo_entrp">    -31.56832634 </i>
    <i name="e_0_energy">    -31.64546030 </i>
   </energy>
  </scstep>
  <scstep>
   <time name="dav">    0.01    0.01</time>
   <time name="total">    0.02    0.05</time>
   <energy>
    <i name="e_fr_energy">    -31.72157539 </i>
    <i name="e_wo_entrp">    -31.56730756 </i>
    <i name="e_0_energy">    -31.64444147 </i>
   </energy>
  </scstep>
  <scstep>
   <time name="dav">    0.01    0.01</time>
   <time name="total">    0.02    0.05</time>
   <energy>
    <i name="e_fr_energy">    -31.70898529 </i>
    <i name="e_wo_entrp">    -31.55471397 </i>
    <i name="e_0_energy">    -31.63184963 </i>
   </energy>
  </scstep>
  <scstep>
   <time name="dav">    0.01    0.01</time>
   <time name="total">    0.02    0.05</time>
   <energy>
    <i name="e_fr_energy">    -31.68820667 </i>
    <i name="e_wo_entrp">    -31.53392356 </i>
    <i name="e_0_energy">    -31.61106511 </i>
   </energy>
  </scstep>
  <scstep>
   <time name="dav">    0.01    0.01</time>
   <time name="total">    0.02    0.05</time>
   <energy>
    <i name="e_fr_energy">    -31.68339954 </i>
    <i name="e_wo_entrp">    -31.52911107 </i>
    <i name="e_0_energy">    -31.60625531 </i>
   </energy>
  </scstep>
  <scstep>
   <time name="dav">    0.01    0.01</time>
   <time name="total">    0.02    0.05</time>
   <energy>
    <i name="e_fr_energy">    -31.68294666 </i>
    <i name="e_wo_entrp">    -31.52865777 </i>
    <i name="e_0_energy">    -31.60580221 </i>
   </energy>
  </scstep>
  <scstep>
   <time name="dav">    0.01    0.01</time>
   <time name="total">    0.02    0.03</time>
   <energy>
    <i name="e_fr_energy">    -31.67854092 </i>
    <i name="e_wo_entrp">    -31.52424625 </i>
    <i name="e_0_energy">    -31.60139358 </i>
   </energy>
  </scstep>
  <scstep>
   <time name="dav">    0.01    0.01</time>
   <time name="total">    0.02    0.02</time>
   <energy>
    <i name="e_fr_energy">    -31.67959493 </i>
    <i name="e_wo_entrp">    -31.52530180 </i>
    <i name="e_0_energy">    -31.60244836 </i>
   </energy>
  </scstep>
  <scstep>
   <time name="dav">    0.01    0.01</time>
   <time name="total">    0.02    0.02</time>
   <energy>
    <i name="e_fr_energy">    -31.69368972 </i>
    <i name="e_wo_entrp">    -31.53941063 </i>
    <i name="e_0_energy">    -31.61655018 </i>
   </energy>
  </scstep>
  <scstep>
   <time name="dav">    0.01    0.01</time>
   <time name="total">    0.02    0.02</time>
   <energy>
    <i name="e_fr_energy">    -31.70092076 </i>
    <i name="e_wo_entrp">    -31.54664572 </i>
    <i name="e_0_energy">    -31.62378324 </i>
   </energy>
  </scstep>
  <scstep>
   <time name="dav">    0.01    0.01</time>
   <time name="total">    0.02    0.02</time>
   <energy>
    <i name="e_fr_energy">    -31.69960520 </i>
    <i name="e_wo_entrp">    -31.54532952 </i>
    <i name="e_0_energy">    -31.62246736 </i>
   </energy>
  </scstep>
  <scstep>
   <time name="dav">    0.01    0.01</time>
   <time name="total">    0.02    0.02</time>
   <energy>
    <i name="e_fr_energy">    -31.69918139 </i>
    <i name="e_wo_entrp">    -31.54490550 </i>
    <i name="e_0_energy">    -31.62204345 </i>
   </energy>
  </scstep>
  <scstep>
   <time name="dav">    0.01    0.01</time>
   <time name="total">    0.02    0.02</time>
   <energy>
    <i name="e_fr_energy">    -31.69198812 </i>
    <i name="e_wo_entrp">    -31.53770657 </i>
    <i name="e_0_energy">    -31.61484735 </i>
   </energy>
  </scstep>
  <scstep>
   <time name="dav">    0.01    0.01</time>
   <time name="total">    0.02    0.02</time>
   <energy>
    <i name="e_fr_energy">    -31.68331980 </i>
    <i name="e_wo_entrp">    -31.52902386 </i>
    <i name="e_0_energy">    -31.60617183 </i>
   </energy>
  </scstep>
  <scstep>
   <time name="dav">    0.01    0.01</time>
   <time name="total">    0.02    0.02</time>
   <energy>
    <i name="e_fr_energy">    -31.68030694 </i>
    <i name="e_wo_entrp">    -31.52599746 </i>
    <i name="e_0_energy">    -31.60315220 </i>
   </energy>
  </scstep>
  <scstep>
   <time name="dav">    0.01    0.01</time>
   <time name="total">    0.02    0.02</time>
   <energy>
    <i name="e_fr_energy">    -31.67937668 </i>
    <i name="e_wo_entrp">    -31.52505399 </i>
    <i name="e_0_energy">    -31.60221533 </i>
   </energy>
  </scstep>
  <scstep>
   <time name="dav">    0.01    0.01</time>
   <time name="total">    0.02    0.02</time>
   <energy>
    <i name="e_fr_energy">    -31.67942575 </i>
    <i name="e_wo_entrp">    -31.52508332 </i>
    <i name="e_0_energy">    -31.60225453 </i>
   </energy>
  </scstep>
  <scstep>
   <time name="dav">    0.01    0.01</time>
   <time name="total">    0.02    0.02</time>
   <energy>
    <i name="e_fr_energy">    -31.67959545 </i>
    <i name="e_wo_entrp">    -31.52524798 </i>
    <i name="e_0_energy">    -31.60242172 </i>
   </energy>
  </scstep>
  <scstep>
   <time name="dav">    0.01    0.01</time>
   <time name="total">    0.01    0.01</time>
   <energy>
    <i name="alphaZ">      9.32923325 </i>
    <i name="ewald">   -809.16530424 </i>
    <i name="hartreedc">    -87.64104663 </i>
    <i name="XCdc">    -77.09869187 </i>
    <i name="pawpsdc">   2789.82091176 </i>
    <i name="pawaedc">  -2649.48061769 </i>
    <i name="eentropy">     -0.15434462 </i>
    <i name="bandstr">    -31.77588207 </i>
    <i name="atom">    824.48621262 </i>
    <i name="e_fr_energy">    -31.67952949 </i>
    <i name="e_wo_entrp">    -31.52518487 </i>
    <i name="e_0_energy">    -31.60235718 </i>
   </energy>
  </scstep>
  <structure>
   <crystal>
    <varray name="basis" >
     <v>       6.13521108      -0.00000000       0.00000000 </v>
     <v>      -0.00000000       6.13521108      -0.00000000 </v>
     <v>       0.00000000      -0.00000000       6.13521108 </v>
    </varray>
    <i name="volume">    230.93434517 </i>
    <varray name="rec_basis" >
     <v>       0.16299358       0.00000000      -0.00000000 </v>
     <v>       0.00000000       0.16299358       0.00000000 </v>
     <v>      -0.00000000       0.00000000       0.16299358 </v>
    </varray>
   </crystal>
   <varray name="positions" >
    <v>      -0.00000000       0.00000000       0.00000000 </v>
    <v>       0.00000000       0.50000000       0.50000000 </v>
    <v>       0.50000000      -0.00000000       0.50000000 </v>
    <v>       0.50000000       0.50000000      -0.00000000 </v>
    <v>       0.25000000       0.25000000       0.25000000 </v>
    <v>       0.75000000       0.75000000       0.25000000 </v>
    <v>       0.75000000       0.25000000       0.75000000 </v>
    <v>       0.25000000       0.75000000       0.75000000 </v>
   </varray>
  </structure>
  <varray name="forces" >
   <v>       0.00000000       0.00000000      -0.00000000 </v>
   <v>       0.00000000       0.00000000       0.00000000 </v>
   <v>       0.00000000       0.00000000       0.00000000 </v>
   <v>      -0.00000000      -0.00000000      -0.00000000 </v>
   <v>       0.00000000       0.00000000       0.00000000 </v>
   <v>      -0.00000000      -0.00000000       0.00000000 </v>
   <v>       0.00000000      -0.00000000      -0.00000000 </v>
   <v>      -0.00000000      -0.00000000      -0.00000000 </v>
  </varray>
  <varray name="stress" >
   <v>      -8.13165521       0.00000000       0.00000000 </v>
   <v>      -0.00000000      -8.13165521       0.00000000 </v>
   <v>      -0.00000000       0.00000000      -8.13165521 </v>
  </varray>
  <energy>
   <i name="e_fr_energy">    -31.67952949 </i>
   <i name="e_wo_entrp">    -31.60235718 </i>
   <i name="e_0_energy">     -0.15434462 </i>
  </energy>
  <time name="totalsc">    0.45    1.00</time>
 </calculation>
 <calculation>
  <scstep>
   <time name="dav">    0.01    0.01</time>
   <time name="total">    0.01    0.01</time>
   <energy>
    <i name="alphaZ">      9.65229185 </i>
    <i name="ewald">   -818.39961627 </i>
    <i name="hartreedc">    -88.59632075 </i>
    <i name="XCdc">    -76.49319026 </i>
    <i name="pawpsdc">   2786.70473416 </i>
    <i name="pawaedc">  -2646.35633911 </i>
    <i name="eentropy">     -0.14617439 </i>
    <i name="bandstr">    -22.66030815 </i>
    <i name="atom">    824.48621262 </i>
    <i name="e_fr_energy">    -31.80871030 </i>
    <i name="e_wo_entrp">    -31.66253591 </i>
    <i name="e_0_energy">    -31.73562311 </i>
   </energy>
  </scstep>
  <scstep>
   <time name="dav">    0.01    0.01</time>
   <time name="total">    0.01    0.01</time>
   <energy>
    <i name="e_fr_energy">    -31.81149076 </i>
    <i name="e_wo_entrp">    -31.66532473 </i>
    <i name="e_0_energy">    -31.73840775 </i>
   </energy>
  </scstep>
  <scstep>
   <time name="dav">    0.01    0.01</time>
   <time name="total">    0.01    0.01</time>
   <energy>
    <i name="e_fr_energy">    -31.81151062 </i>
    <i name="e_wo_entrp">    -31.66534466 </i>
    <i name="e_0_energy">    -31.73842764 </i>
   </energy>
  </scstep>
  <scstep>
   <time name="dav">    0.01    0.01</time>
   <time name="total">    0.02    0.02</time>
   <energy>
    <i name="e_fr_energy">    -31.76153440 </i>
    <i name="e_wo_entrp">    -31.60113527 </i>
    <i name="e_0_energy">    -31.68133483 </i>
   </energy>
  </scstep>
  <scstep>
   <time name="dav">    0.01    0.01</time>
   <time name="total">    0.02    0.02</time>
   <energy>
    <i name="e_fr_energy">    -31.74176142 </i>
    <i name="e_wo_entrp">    -31.57075968 </i>
    <i name="e_0_energy">    -31.65626055 </i>
   </energy>
  </scstep>
  <scstep>
   <time name="dav">    0.01    0.01</time>
   <time name="total">    0.02    0.02</time>
   <energy>
    <i name="e_fr_energy">    -31.74156427 </i>
    <i name="e_wo_entrp">    -31.57030312 </i>
    <i name="e_0_energy">    -31.65593370 </i>
   </energy>
  </scstep>
  <scstep>
   <time name="dav">    0.01    0.01</time>
   <time name="total">    0.01    0.01</time>
   <energy>
    <i name="alphaZ">      9.65229185 </i>
    <i name="ewald">   -818.39961627 </i>
    <i name="hartreedc">    -85.32030735 </i>
    <i name="XCdc">    -76.50624758 </i>
    <i name="pawpsdc">   2884.45462944 </i>
    <i name="pawaedc">  -2744.04538790 </i>
    <i name="eentropy">     -0.17155147 </i>
    <i name="bandstr">    -25.89152070 </i>
    <i name="atom">    824.48621262 </i>
    <i name="e_fr_energy">    -31.74149736 </i>
    <i name="e_wo_entrp">    -31.56994588 </i>
    <i name="e_0_energy">    -31.65572162 </i>
   </energy>
  </scstep>
  <structure>
   <crystal>
    <varray name="basis" >
     <v>       6.06598518      -0.00000000       0.00000000 </v>
     <v>      -0.00000000       6.06598518      -0.00000000 </v>
     <v>       0.00000000      -0.00000000       6.06598518 </v>
    </varray>
    <i name="volume">    223.20505901 </i>
    <varray name="rec_basis" >
     <v>       0.16485368       0.00000000      -0.00000000 </v>
     <v>       0.00000000       0.16485368       0.00000000 </v>
     <v>      -0.00000000       0.00000000       0.16485368 </v>
    </varray>
   </crystal>
   <varray name="positions" >
    <v>      -0.00000000       0.00000000       0.00000000 </v>
    <v>       0.00000000       0.50000000       0.50000000 </v>
    <v>       0.50000000      -0.00000000       0.50000000 </v>
    <v>       0.50000000       0.50000000      -0.00000000 </v>
    <v>       0.25000000       0.25000000       0.25000000 </v>
    <v>       0.75000000       0.75000000       0.25000000 </v>
    <v>       0.75000000       0.25000000       0.75000000 </v>
    <v>       0.25000000       0.75000000       0.75000000 </v>
   </varray>
  </structure>
  <varray name="forces" >
   <v>      -0.00000000      -0.00000000      -0.00000000 </v>
   <v>      -0.00000000       0.00000000      -0.00000000 </v>
   <v>      -0.00000000       0.00000000      -0.00000000 </v>
   <v>       0.00000000       0.00000000      -0.00000000 </v>
   <v>       0.00000000      -0.00000000       0.00000000 </v>
   <v>       0.00000000       0.00000000       0.00000000 </v>
   <v>      -0.00000000      -0.00000000       0.00000000 </v>
   <v>       0.00000000      -0.00000000       0.00000000 </v>
  </varray>
  <varray name="stress" >
   <v>     -43.58574207       0.00000000      -0.00000000 </v>
   <v>       0.00000000     -43.58574207       0.00000000 </v>
   <v>      -0.00000000       0.00000000     -43.58574207 </v>
  </varray>
  <energy>
   <i name="e_fr_energy">    -31.74149736 </i>
   <i name="e_wo_entrp">    -31.65572162 </i>
   <i name="e_0_energy">     -0.17155147 </i>
  </energy>
  <time name="totalsc">    0.12    0.14</time>
 </calculation>
 <calculation>
  <scstep>
   <time name="dav">    0.01    0.01</time>
   <time name="total">    0.01    0.01</time>
   <energy>
    <i name="alphaZ">     10.83455085 </i>
    <i name="ewald">   -850.53509760 </i>
    <i name="hartreedc">    -88.64466762 </i>
    <i name="XCdc">    -74.43228331 </i>
    <i name="pawpsdc">   2874.27417860 </i>
    <i name="pawaedc">  -2733.86426570 </i>
    <i name="eentropy">     -0.00000003 </i>
    <i name="bandstr">      4.42903464 </i>
    <i name="atom">    824.48621262 </i>
    <i name="e_fr_energy">    -33.45233754 </i>
    <i name="e_wo_entrp">    -33.45233752 </i>
    <i name="e_0_energy">    -33.45233753 </i>
   </energy>
  </scstep>
  <scstep>
   <time name="dav">    0.01    0.01</time>
   <time name="total">    0.01    0.01</time>
   <energy>
    <i name="e_fr_energy">    -33.48838758 </i>
    <i name="e_wo_entrp">    -33.48838755 </i>
    <i name="e_0_energy">    -33.48838757 </i>
   </energy>
  </scstep>
  <scstep>
   <time name="dav">    0.01    0.01</time>
   <time name="total">    0.01    0.01</time>
   <energy>
    <i name="e_fr_energy">    -33.48861510 </i>
    <i name="e_wo_entrp">    -33.48861507 </i>
    <i name="e_0_energy">    -33.48861509 </i>
   </energy>
  </scstep>
  <scstep>
   <time name="dav">    0.01    0.01</time>
   <time name="total">    0.02    0.02</time>
   <energy>
    <i name="e_fr_energy">    -33.22428431 </i>
    <i name="e_wo_entrp">    -33.22428431 </i>
    <i name="e_0_energy">    -33.22428431 </i>
   </energy>
  </scstep>
  <scstep>
   <time name="dav">    0.01    0.01</time>
   <time name="total">    0.02    0.02</time>
   <energy>
    <i name="e_fr_energy">    -33.08490176 </i>
    <i name="e_wo_entrp">    -33.08490176 </i>
    <i name="e_0_energy">    -33.08490176 </i>
   </energy>
  </scstep>
  <scstep>
   <time name="dav">    0.01    0.01</time>
   <time name="total">    0.02    0.02</time>
   <energy>
    <i name="e_fr_energy">    -33.08235609 </i>
    <i name="e_wo_entrp">    -33.08235609 </i>
    <i name="e_0_energy">    -33.08235609 </i>
   </energy>
  </scstep>
  <scstep>
   <time name="dav">    0.01    0.01</time>
   <time name="total">    0.02    0.02</time>
   <energy>
    <i name="e_fr_energy">    -33.08217473 </i>
    <i name="e_wo_entrp">    -33.08217473 </i>
    <i name="e_0_energy">    -33.08217473 </i>
   </energy>
  </scstep>
  <scstep>
   <time name="dav">    0.01    0.01</time>
   <time name="total">    0.01    0.01</time>
   <energy>
    <i name="alphaZ">     10.83455085 </i>
    <i name="ewald">   -850.53509760 </i>
    <i name="hartreedc">    -79.34352795 </i>
    <i name="XCdc">    -74.47281194 </i>
    <i name="pawpsdc">   3293.03004346 </i>
    <i name="pawaedc">  -3152.71435440 </i>
    <i name="eentropy">     -0.00000000 </i>
    <i name="bandstr">     -4.36719659 </i>
    <i name="atom">    824.48621262 </i>
    <i name="e_fr_energy">    -33.08218155 </i>
    <i name="e_wo_entrp">    -33.08218155 </i>
    <i name="e_0_energy">    -33.08218155 </i>
   </energy>
  </scstep>
  <structure>
   <crystal>
    <varray name="basis" >
     <v>       5.83679610      -0.00000000       0.00000000 </v>
     <v>      -0.00000000       5.83679610      -0.00000000 </v>
     <v>       0.00000000      -0.00000000       5.83679610 </v>
    </varray>
    <i name="volume">    198.84907091 </i>
    <varray name="rec_basis" >
     <v>       0.17132687       0.00000000      -0.00000000 </v>
     <v>       0.00000000       0.17132687       0.00000000 </v>
     <v>      -0.00000000       0.00000000       0.17132687 </v>
    </varray>
   </crystal>
   <varray name="positions" >
    <v>      -0.00000000       0.00000000       0.00000000 </v>
    <v>       0.00000000       0.50000000       0.50000000 </v>
    <v>       0.50000000      -0.00000000       0.50000000 </v>
    <v>       0.50000000       0.50000000      -0.00000000 </v>
    <v>       0.25000000       0.25000000       0.25000000 </v>
    <v>       0.75000000       0.75000000       0.25000000 </v>
    <v>       0.75000000       0.25000000       0.75000000 </v>
    <v>       0.25000000       0.75000000       0.75000000 </v>
   </varray>
  </structure>
  <varray name="forces" >
   <v>      -0.00000000      -0.00000000      -0.00000000 </v>
   <v>      -0.00000000       0.00000000      -0.00000000 </v>
   <v>      -0.00000000       0.00000000      -0.00000000 </v>
   <v>      -0.00000000      -0.00000000       0.00000000 </v>
   <v>       0.00000000       0.00000000      -0.00000000 </v>
   <v>       0.00000000       0.00000000       0.00000000 </v>
   <v>       0.00000000      -0.00000000       0.00000000 </v>
   <v>       0.00000000      -0.00000000      -0.00000000 </v>
  </varray>
  <varray name="stress" >
   <v>     -72.18112575       0.00000000      -0.00000000 </v>
   <v>       0.00000000     -72.18112575       0.00000000 </v>
   <v>      -0.00000000       0.00000000     -72.18112575 </v>
  </varray>
  <energy>
   <i name="e_fr_energy">    -33.08218155 </i>
   <i name="e_wo_entrp">    -33.08218155 </i>
   <i name="e_0_energy">     -0.00000000 </i>
  </energy>
  <time name="totalsc">    0.14    0.16</time>
 </calculation>
 <calculation>
  <scstep>
   <time name="dav">    0.01    0.01</time>
   <time name="total">    0.01    0.01</time>
   <energy>
    <i name="alphaZ">     12.04779384 </i>
    <i name="ewald">   -881.16609426 </i>
    <i name="hartreedc">    -82.20263383 </i>
    <i name="XCdc">    -72.47896960 </i>
    <i name="pawpsdc">   3276.68549975 </i>
    <i name="pawaedc">  -3136.36991793 </i>
    <i name="eentropy">     -0.00000383 </i>
    <i name="bandstr">     25.20310928 </i>
    <i name="atom">    824.48621262 </i>
    <i name="e_fr_energy">    -33.79500397 </i>
    <i name="e_wo_entrp">    -33.79500013 </i>
    <i name="e_0_energy">    -33.79500205 </i>
   </energy>
  </scstep>
  <scstep>
   <time name="dav">    0.01    0.01</time>
   <time name="total">    0.01    0.01</time>
   <energy>
    <i name="e_fr_energy">    -33.82262582 </i>
    <i name="e_wo_entrp">    -33.82262195 </i>
    <i name="e_0_energy">    -33.82262388 </i>
   </energy>
  </scstep>
  <scstep>
   <time name="dav">    0.01    0.01</time>
   <time name="total">    0.01    0.01</time>
   <energy>
    <i name="e_fr_energy">    -33.82277897 </i>
    <i name="e_wo_entrp">    -33.82277509 </i>
    <i name="e_0_energy">    -33.82277703 </i>
   </energy>
  </scstep>
  <scstep>
   <time name="dav">    0.01    0.01</time>
   <time name="total">    0.02    0.02</time>
   <energy>
    <i name="e_fr_energy">    -33.67785915 </i>
    <i name="e_wo_entrp">    -33.67785865 </i>
    <i name="e_0_energy">    -33.67785890 </i>
   </energy>
  </scstep>
  <scstep>
   <time name="dav">    0.01    0.01</time>
   <time name="total">    0.02    0.02</time>
   <energy>
    <i name="e_fr_energy">    -33.59707323 </i>
    <i name="e_wo_entrp">    -33.59707321 </i>
    <i name="e_0_energy">    -33.59707322 </i>
   </energy>
  </scstep>
  <scstep>
   <time name="dav">    0.01    0.01</time>
   <time name="total">    0.02    0.02</time>
   <energy>
    <i name="e_fr_energy">    -33.59599886 </i>
    <i name="e_wo_entrp">    -33.59599884 </i>
    <i name="e_0_energy">    -33.59599885 </i>
   </energy>
  </scstep>
  <scstep>
   <time name="dav">    0.01    0.01</time>
   <time name="total">    0.02    0.02</time>
   <energy>
    <i name="e_fr_energy">    -33.59585459 </i>
    <i name="e_wo_entrp">    -33.59585458 </i>
    <i name="e_0_energy">    -33.59585458 </i>
   </energy>
  </scstep>
  <scstep>
   <time name="dav">    0.01    0.01</time>
   <time name="total">    0.01    0.01</time>
   <energy>
    <i name="alphaZ">     12.04779384 </i>
    <i name="ewald">   -881.16609426 </i>
    <i name="hartreedc">    -74.48743024 </i>
    <i name="XCdc">    -72.63527511 </i>
    <i name="pawpsdc">   3851.48858539 </i>
    <i name="pawaedc">  -3711.48691555 </i>
    <i name="eentropy">     -0.00000002 </i>
    <i name="bandstr">     18.15726470 </i>
    <i name="atom">    824.48621262 </i>
    <i name="e_fr_energy">    -33.59585862 </i>
    <i name="e_wo_entrp">    -33.59585860 </i>
    <i name="e_0_energy">    -33.59585861 </i>
   </energy>
  </scstep>
  <structure>
   <crystal>
    <varray name="basis" >
     <v>       5.63389805      -0.00000000       0.00000000 </v>
     <v>      -0.00000000       5.63389805      -0.00000000 </v>
     <v>       0.00000000      -0.00000000       5.63389805 </v>
    </varray>
    <i name="volume">    178.82447195 </i>
    <varray name="rec_basis" >
     <v>       0.17749700       0.00000000      -0.00000000 </v>
     <v>       0.00000000       0.17749700       0.00000000 </v>
     <v>      -0.00000000       0.00000000       0.17749700 </v>
    </varray>
   </crystal>
   <varray name="positions" >
    <v>      -0.00000000       0.00000000       0.00000000 </v>
    <v>       0.00000000       0.50000000       0.50000000 </v>
    <v>       0.50000000      -0.00000000       0.50000000 </v>
    <v>       0.50000000       0.50000000      -0.00000000 </v>
    <v>       0.25000000       0.25000000       0.25000000 </v>
    <v>       0.75000000       0.75000000       0.25000000 </v>
    <v>       0.75000000       0.25000000       0.75000000 </v>
    <v>       0.25000000       0.75000000       0.75000000 </v>
   </varray>
  </structure>
  <varray name="forces" >
   <v>       0.00000000      -0.00000000       0.00000000 </v>
   <v>       0.00000000      -0.00000000       0.00000000 </v>
   <v>       0.00000000       0.00000000       0.00000000 </v>
   <v>      -0.00000000       0.00000000       0.00000000 </v>
   <v>       0.00000000       0.00000000      -0.00000000 </v>
   <v>      -0.00000000       0.00000000      -0.00000000 </v>
   <v>      -0.00000000       0.00000000      -0.00000000 </v>
   <v>      -0.00000000      -0.00000000      -0.00000000 </v>
  </varray>
  <varray name="stress" >
   <v>      -3.17716278       0.00000000      -0.00000000 </v>
   <v>       0.00000000      -3.17716278       0.00000000 </v>
   <v>      -0.00000000       0.00000000      -3.17716278 </v>
  </varray>
  <energy>
   <i name="e_fr_energy">    -33.59585862 </i>
   <i name="e_wo_entrp">    -33.59585861 </i>
   <i name="e_0_energy">     -0.00000002 </i>
  </energy>
  <time name="totalsc">    0.14    0.16</time>
 </calculation>
 <calculation>
  <scstep>
   <time name="dav">    0.01    0.01</time>
   <time name="total">    0.01    0.01</time>
   <energy>
    <i name="alphaZ">     12.09607781 </i>
    <i name="ewald">   -882.34167567 </i>
    <i name="hartreedc">    -74.60715222 </i>
    <i name="XCdc">    -72.55579475 </i>
    <i name="pawpsdc">   3851.90973542 </i>
    <i name="pawaedc">  -3711.90969382 </i>
    <i name="eentropy">     -0.00000003 </i>
    <i name="bandstr">     19.32541289 </i>
    <i name="atom">    824.48621262 </i>
    <i name="e_fr_energy">    -33.59687774 </i>
    <i name="e_wo_entrp">    -33.59687771 </i>
    <i name="e_0_energy">    -33.59687772 </i>
   </energy>
  </scstep>
  <scstep>
   <time name="dav">    0.01    0.01</time>
   <time name="total">    0.01    0.01</time>
   <energy>
    <i name="e_fr_energy">    -33.59690955 </i>
    <i name="e_wo_entrp">    -33.59690952 </i>
    <i name="e_0_energy">    -33.59690954 </i>
   </energy>
  </scstep>
  <scstep>
   <time name="dav">    0.01    0.01</time>
   <time name="total">    0.01    0.01</time>
   <energy>
    <i name="e_fr_energy">    -33.59690987 </i>
    <i name="e_wo_entrp">    -33.59690984 </i>
    <i name="e_0_energy">    -33.59690986 </i>
   </energy>
  </scstep>
  <scstep>
   <time name="dav">    0.01    0.01</time>
   <time name="total">    0.02    0.02</time>
   <energy>
    <i name="e_fr_energy">    -33.59671552 </i>
    <i name="e_wo_entrp">    -33.59671549 </i>
    <i name="e_0_energy">    -33.59671550 </i>
   </energy>
  </scstep>
  <scstep>
   <time name="dav">    0.01    0.01</time>
   <time name="total">    0.02    0.02</time>
   <energy>
    <i name="e_fr_energy">    -33.59661310 </i>
    <i name="e_wo_entrp">    -33.59661308 </i>
    <i name="e_0_energy">    -33.59661309 </i>
   </energy>
  </scstep>
  <scstep>
   <time name="dav">    0.01    0.01</time>
   <time name="total">    0.01    0.01</time>
   <energy>
    <i name="alphaZ">     12.09607781 </i>
    <i name="ewald">   -882.34167567 </i>
    <i name="hartreedc">    -74.34761392 </i>
    <i name="XCdc">    -72.56026434 </i>
    <i name="pawpsdc">   3875.78394032 </i>
    <i name="pawaedc">  -3735.79834284 </i>
    <i name="eentropy">     -0.00000002 </i>
    <i name="bandstr">     19.08504486 </i>
    <i name="atom">    824.48621262 </i>
    <i name="e_fr_energy">    -33.59662117 </i>
    <i name="e_wo_entrp">    -33.59662115 </i>
    <i name="e_0_energy">    -33.59662116 </i>
   </energy>
  </scstep>
  <structure>
   <crystal>
    <varray name="basis" >
     <v>       5.62639177      -0.00000000       0.00000000 </v>
     <v>      -0.00000000       5.62639177      -0.00000000 </v>
     <v>       0.00000000      -0.00000000       5.62639177 </v>
    </varray>
    <i name="volume">    178.11065745 </i>
    <varray name="rec_basis" >
     <v>       0.17773380       0.00000000      -0.00000000 </v>
     <v>       0.00000000       0.17773380       0.00000000 </v>
     <v>      -0.00000000       0.00000000       0.17773380 </v>
    </varray>
   </crystal>
   <varray name="positions" >
    <v>      -0.00000000       0.00000000       0.00000000 </v>
    <v>       0.00000000       0.50000000       0.50000000 </v>
    <v>       0.50000000      -0.00000000       0.50000000 </v>
    <v>       0.50000000       0.50000000      -0.00000000 </v>
    <v>       0.25000000       0.25000000       0.25000000 </v>
    <v>       0.75000000       0.75000000       0.25000000 </v>
    <v>       0.75000000       0.25000000       0.75000000 </v>
    <v>       0.25000000       0.75000000       0.75000000 </v>
   </varray>
  </structure>
  <varray name="forces" >
   <v>       0.00000000       0.00000000       0.00000000 </v>
   <v>      -0.00000000       0.00000000       0.00000000 </v>
   <v>       0.00000000       0.00000000       0.00000000 </v>
   <v>       0.00000000       0.00000000       0.00000000 </v>
   <v>      -0.00000000       0.00000000      -0.00000000 </v>
   <v>      -0.00000000      -0.00000000      -0.00000000 </v>
   <v>      -0.00000000      -0.00000000      -0.00000000 </v>
   <v>      -0.00000000      -0.00000000      -0.00000000 </v>
  </varray>
  <varray name="stress" >
   <v>      -0.17174338      -0.00000000       0.00000000 </v>
   <v>      -0.00000000      -0.17174338       0.00000000 </v>
   <v>      -0.00000000      -0.00000000      -0.17174338 </v>
  </varray>
  <energy>
   <i name="e_fr_energy">    -33.59662117 </i>
   <i name="e_wo_entrp">    -33.59662116 </i>
   <i name="e_0_energy">     -0.00000002 </i>
  </energy>
  <time name="totalsc">    0.09    0.12</time>
  <eigenvalues>
   <array>
    <dimension dim="1">band</dimension>
    <dimension dim="2">kpoint</dimension>
    <dimension dim="3">spin</dimension>
    <field>eigene</field>
    <field>occ</field>
    <set>
     <set comment="spin 1">
      <set comment="kpoint 1">
       <r>   -6.1974    1.0000 </r>
       <r>   -2.4088    1.0000 </r>
       <r>   -2.4088    1.0000 </r>
       <r>   -2.4088    1.0000 </r>
       <r>   -2.4088    1.0000 </r>
       <r>   -2.4088    1.0000 </r>
       <r>   -2.4088    1.0000 </r>
       <r>    2.4712    1.0000 </r>
       <r>    2.4712    1.0000 </r>
       <r>    2.4712    1.0000 </r>
       <r>    2.4712    1.0000 </r>
       <r>    2.4712    1.0000 </r>
       <r>    2.4712    1.0000 </r>
       <r>    5.1217    1.0000 </r>
       <r>    5.1217    1.0000 </r>
       <r>    5.1217    1.0000 </r>
       <r>    5.9445    0.0000 </r>
       <r>    5.9445    0.0000 </r>
       <r>    5.9445    0.0000 </r>
       <r>    5.9445    0.0000 </r>
       <r>    5.9445    0.0000 </r>
       <r>    5.9445    0.0000 </r>
       <r>    7.3366    0.0000 </r>
       <r>    7.5278    0.0000 </r>
       <r>    7.5278    0.0000 </r>
      </set>
     </set>
    </set>
   </array>
  </eigenvalues>
  <separator name="orbital magnetization" >
   <v name="MAGDIPOLOUT">      0.00000000      0.00000000      0.00000000</v>
  </separator>
  <dos>
   <i name="efermi">      5.52900889 </i>
   <total>
    <array>
     <dimension dim="1">gridpoints</dimension>
     <dimension dim="2">spin</dimension>
     <field>energy</field>
     <field>total</field>
     <field>integrated</field>
     <set>
      <set comment="spin 1">
       <r>    -7.1974     0.0000     0.0000 </r>
       <r>    -7.1450     0.0000     0.0000 </r>
       <r>    -7.0926     0.0000     0.0000 </r>
       <r>    -7.0402     0.0000     0.0000 </r>
       <r>    -6.9877     0.0000     0.0000 </r>
       <r>    -6.9353     0.0000     0.0000 </r>
       <r>    -6.8829     0.0000     0.0000 </r>
       <r>    -6.8305     0.0000     0.0000 </r>
       <r>    -6.7781     0.0000     0.0000 </r>
       <r>    -6.7257     0.0000     0.0000 </r>
       <r>    -6.6732     0.0000     0.0000 </r>
       <r>    -6.6208     0.0000     0.0000 </r>
       <r>    -6.5684     0.0000     0.0000 </r>
       <r>    -6.5160     0.0001     0.0000 </r>
       <r>    -6.4636     0.0031     0.0002 </r>
       <r>    -6.4111     0.0446     0.0025 </r>
       <r>    -6.3587     0.3819     0.0225 </r>
       <r>    -6.3063     1.9268     0.1235 </r>
       <r>    -6.2539     5.7393     0.4244 </r>
       <r>    -6.2015    10.1057     0.9541 </r>
       <r>    -6.1491    10.5263     1.5058 </r>
       <r>    -6.0966     6.4865     1.8458 </r>
       <r>    -6.0442     2.3632     1.9697 </r>
       <r>    -5.9918     0.5084     1.9964 </r>
       <r>    -5.9394     0.0645     1.9997 </r>
       <r>    -5.8870     0.0048     2.0000 </r>
       <r>    -5.8346     0.0002     2.0000 </r>
       <r>    -5.7821     0.0000     2.0000 </r>
       <r>    -5.7297     0.0000     2.0000 </r>
       <r>    -5.6773     0.0000     2.0000 </r>
       <r>    -5.6249     0.0000     2.0000 </r>
       <r>    -5.5725     0.0000     2.0000 </r>
       <r>    -5.5201     0.0000     2.0000 </r>
       <r>    -5.4676     0.0000     2.0000 </r>
       <r>    -5.4152     0.0000     2.0000 </r>
       <r>    -5.3628     0.0000     2.0000 </r>
       <r>    -5.3104     0.0000     2.0000 </r>
       <r>    -5.2580     0.0000     2.0000 </r>
       <r>    -5.2056     0.0000     2.0000 </r>
       <r>    -5.1531     0.0000     2.0000 </r>
       <r>    -5.1007     0.0000     2.0000 </r>
       <r>    -5.0483     0.0000     2.0000 </r>
       <r>    -4.9959     0.0000     2.0000 </r>
       <r>    -4.9435     0.0000     2.0000 </r>
       <r>    -4.8910     0.0000     2.0000 </r>
       <r>    -4.8386     0.0000     2.0000 </r>
       <r>    -4.7862     0.0000     2.0000 </r>
       <r>    -4.7338     0.0000     2.0000 </r>
       <r>    -4.6814     0.0000     2.0000 </r>
       <r>    -4.6290     0.0000     2.0000 </r>
       <r>    -4.5765     0.0000     2.0000 </r>
       <r>    -4.5241     0.0000     2.0000 </r>
       <r>    -4.4717     0.0000     2.0000 </r>
       <r>    -4.4193     0.0000     2.0000 </r>
       <r>    -4.3669     0.0000     2.0000 </r>
       <r>    -4.3145     0.0000     2.0000 </r>
       <r>    -4.2620     0.0000     2.0000 </r>
       <r>    -4.2096     0.0000     2.0000 </r>
       <r>    -4.1572     0.0000     2.0000 </r>
       <r>    -4.1048     0.0000     2.0000 </r>
       <r>    -4.0524     0.0000     2.0000 </r>
       <r>    -4.0000     0.0000     2.0000 </r>
       <r>    -3.9475     0.0000     2.0000 </r>
       <r>    -3.8951     0.0000     2.0000 </r>
       <r>    -3.8427     0.0000     2.0000 </r>
       <r>    -3.7903     0.0000     2.0000 </r>
       <r>    -3.7379     0.0000     2.0000 </r>
       <r>    -3.6855     0.0000     2.0000 </r>
       <r>    -3.6330     0.0000     2.0000 </r>
       <r>    -3.5806     0.0000     2.0000 </r>
       <r>    -3.5282     0.0000     2.0000 </r>
       <r>    -3.4758     0.0000     2.0000 </r>
       <r>    -3.4234     0.0000     2.0000 </r>
       <r>    -3.3709     0.0000     2.0000 </r>
       <r>    -3.3185     0.0000     2.0000 </r>
       <r>    -3.2661     0.0000     2.0000 </r>
       <r>    -3.2137     0.0000     2.0000 </r>
       <r>    -3.1613     0.0000     2.0000 </r>
       <r>    -3.1089     0.0000     2.0000 </r>
       <r>    -3.0564     0.0000     2.0000 </r>
       <r>    -3.0040     0.0000     2.0000 </r>
       <r>    -2.9516     0.0000     2.0000 </r>
       <r>    -2.8992     0.0000     2.0000 </r>
       <r>    -2.8468     0.0000     2.0000 </r>
       <r>    -2.7944     0.0000     2.0000 </r>
       <r>    -2.7419     0.0003     2.0000 </r>
       <r>    -2.6895     0.0079     2.0004 </r>
       <r>    -2.6371     0.1338     2.0074 </r>
       <r>    -2.5847     1.3284     2.0771 </r>
       <r>    -2.5323     7.7654     2.4841 </r>
       <r>    -2.4799    26.7856     3.8881 </r>
       <r>    -2.4274    54.5985     6.7501 </r>
       <r>    -2.3750    65.8265    10.2005 </r>
       <r>    -2.3226    46.9537    12.6617 </r>
       <r>    -2.2702    19.8058    13.6998 </r>
       <r>    -2.2178     4.9351    13.9585 </r>
       <r>    -2.1654     0.7252    13.9965 </r>
       <r>    -2.1129     0.0627    13.9998 </r>
       <r>    -2.0605     0.0032    14.0000 </r>
       <r>    -2.0081     0.0001    14.0000 </r>
       <r>    -1.9557     0.0000    14.0000 </r>
       <r>    -1.9033     0.0000    14.0000 </r>
       <r>    -1.8508     0.0000    14.0000 </r>
       <r>    -1.7984     0.0000    14.0000 </r>
       <r>    -1.7460     0.0000    14.0000 </r>
       <r>    -1.6936     0.0000    14.0000 </r>
       <r>    -1.6412     0.0000    14.0000 </r>
       <r>    -1.5888     0.0000    14.0000 </r>
       <r>    -1.5363     0.0000    14.0000 </r>
       <r>    -1.4839     0.0000    14.0000 </r>
       <r>    -1.4315     0.0000    14.0000 </r>
       <r>    -1.3791     0.0000    14.0000 </r>
       <r>    -1.3267     0.0000    14.0000 </r>
       <r>    -1.2743     0.0000    14.0000 </r>
       <r>    -1.2218     0.0000    14.0000 </r>
       <r>    -1.1694     0.0000    14.0000 </r>
       <r>    -1.1170     0.0000    14.0000 </r>
       <r>    -1.0646     0.0000    14.0000 </r>
       <r>    -1.0122     0.0000    14.0000 </r>
       <r>    -0.9598     0.0000    14.0000 </r>
       <r>    -0.9073     0.0000    14.0000 </r>
       <r>    -0.8549     0.0000    14.0000 </r>
       <r>    -0.8025     0.0000    14.0000 </r>
       <r>    -0.7501     0.0000    14.0000 </r>
       <r>    -0.6977     0.0000    14.0000 </r>
       <r>    -0.6453     0.0000    14.0000 </r>
       <r>    -0.5928     0.0000    14.0000 </r>
       <r>    -0.5404     0.0000    14.0000 </r>
       <r>    -0.4880     0.0000    14.0000 </r>
       <r>    -0.4356     0.0000    14.0000 </r>
       <r>    -0.3832     0.0000    14.0000 </r>
       <r>    -0.3307     0.0000    14.0000 </r>
       <r>    -0.2783     0.0000    14.0000 </r>
       <r>    -0.2259     0.0000    14.0000 </r>
       <r>    -0.1735     0.0000    14.0000 </r>
       <r>    -0.1211     0.0000    14.0000 </r>
       <r>    -0.0687     0.0000    14.0000 </r>
       <r>    -0.0162     0.0000    14.0000 </r>
       <r>     0.0362     0.0000    14.0000 </r>
       <r>     0.0886     0.0000    14.0000 </r>
       <r>     0.1410     0.0000    14.0000 </r>
       <r>     0.1934     0.0000    14.0000 </r>
       <r>     0.2458     0.0000    14.0000 </r>
       <r>     0.2983     0.0000    14.0000 </r>
       <r>     0.3507     0.0000    14.0000 </r>
       <r>     0.4031     0.0000    14.0000 </r>
       <r>     0.4555     0.0000    14.0000 </r>
       <r>     0.5079     0.0000    14.0000 </r>
       <r>     0.5603     0.0000    14.0000 </r>
       <r>     0.6128     0.0000    14.0000 </r>
       <r>     0.6652     0.0000    14.0000 </r>
       <r>     0.7176     0.0000    14.0000 </r>
       <r>     0.7700     0.0000    14.0000 </r>
       <r>     0.8224     0.0000    14.0000 </r>
       <r>     0.8748     0.0000    14.0000 </r>
       <r>     0.9273     0.0000    14.0000 </r>
       <r>     0.9797     0.0000    14.0000 </r>
       <r>     1.0321     0.0000    14.0000 </r>
       <r>     1.0845     0.0000    14.0000 </r>
       <r>     1.1369     0.0000    14.0000 </r>
       <r>     1.1894     0.0000    14.0000 </r>
       <r>     1.2418     0.0000    14.0000 </r>
       <r>     1.2942     0.0000    14.0000 </r>
       <r>     1.3466     0.0000    14.0000 </r>
       <r>     1.3990     0.0000    14.0000 </r>
       <r>     1.4514     0.0000    14.0000 </r>
       <r>     1.5039     0.0000    14.0000 </r>
       <r>     1.5563     0.0000    14.0000 </r>
       <r>     1.6087     0.0000    14.0000 </r>
       <r>     1.6611     0.0000    14.0000 </r>
       <r>     1.7135     0.0000    14.0000 </r>
       <r>     1.7659     0.0000    14.0000 </r>
       <r>     1.8184     0.0000    14.0000 </r>
       <r>     1.8708     0.0000    14.0000 </r>
       <r>     1.9232     0.0000    14.0000 </r>
       <r>     1.9756     0.0000    14.0000 </r>
       <r>     2.0280     0.0000    14.0000 </r>
       <r>     2.0804     0.0000    14.0000 </r>
       <r>     2.1329     0.0002    14.0000 </r>
       <r>     2.1853     0.0058    14.0003 </r>
       <r>     2.2377     0.1037    14.0057 </r>
       <r>     2.2901     1.0842    14.0626 </r>
       <r>     2.3425     6.6774    14.4126 </r>
       <r>     2.3949    24.2634    15.6844 </r>
       <r>     2.4474    52.0932    18.4150 </r>
       <r>     2.4998    66.1491    21.8823 </r>
       <r>     2.5522    49.6958    24.4873 </r>
       <r>     2.6046    22.0801    25.6446 </r>
       <r>     2.6570     5.7959    25.9484 </r>
       <r>     2.7095     0.8974    25.9955 </r>
       <r>     2.7619     0.0818    25.9998 </r>
       <r>     2.8143     0.0044    26.0000 </r>
       <r>     2.8667     0.0001    26.0000 </r>
       <r>     2.9191     0.0000    26.0000 </r>
       <r>     2.9715     0.0000    26.0000 </r>
       <r>     3.0240     0.0000    26.0000 </r>
       <r>     3.0764     0.0000    26.0000 </r>
       <r>     3.1288     0.0000    26.0000 </r>
       <r>     3.1812     0.0000    26.0000 </r>
       <r>     3.2336     0.0000    26.0000 </r>
       <r>     3.2860     0.0000    26.0000 </r>
       <r>     3.3385     0.0000    26.0000 </r>
       <r>     3.3909     0.0000    26.0000 </r>
       <r>     3.4433     0.0000    26.0000 </r>
       <r>     3.4957     0.0000    26.0000 </r>
       <r>     3.5481     0.0000    26.0000 </r>
       <r>     3.6005     0.0000    26.0000 </r>
       <r>     3.6530     0.0000    26.0000 </r>
       <r>     3.7054     0.0000    26.0000 </r>
       <r>     3.7578     0.0000    26.0000 </r>
       <r>     3.8102     0.0000    26.0000 </r>
       <r>     3.8626     0.0000    26.0000 </r>
       <r>     3.9150     0.0000    26.0000 </r>
       <r>     3.9675     0.0000    26.0000 </r>
       <r>     4.0199     0.0000    26.0000 </r>
       <r>     4.0723     0.0000    26.0000 </r>
       <r>     4.1247     0.0000    26.0000 </r>
       <r>     4.1771     0.0000    26.0000 </r>
       <r>     4.2296     0.0000    26.0000 </r>
       <r>     4.2820     0.0000    26.0000 </r>
       <r>     4.3344     0.0000    26.0000 </r>
       <r>     4.3868     0.0000    26.0000 </r>
       <r>     4.4392     0.0000    26.0000 </r>
       <r>     4.4916     0.0000    26.0000 </r>
       <r>     4.5441     0.0000    26.0000 </r>
       <r>     4.5965     0.0000    26.0000 </r>
       <r>     4.6489     0.0000    26.0000 </r>
       <r>     4.7013     0.0000    26.0000 </r>
       <r>     4.7537     0.0000    26.0000 </r>
       <r>     4.8061     0.0005    26.0000 </r>
       <r>     4.8586     0.0109    26.0006 </r>
       <r>     4.9110     0.1534    26.0086 </r>
       <r>     4.9634     1.2744    26.0754 </r>
       <r>     5.0158     6.2396    26.4025 </r>
       <r>     5.0682    18.0362    27.3479 </r>
       <r>     5.1206    30.8201    28.9634 </r>
       <r>     5.1731    31.1554    30.5965 </r>
       <r>     5.2255    18.6317    31.5731 </r>
       <r>     5.2779     6.5871    31.9184 </r>
       <r>     5.3303     1.3750    31.9905 </r>
       <r>     5.3827     0.1692    31.9993 </r>
       <r>     5.4351     0.0122    32.0000 </r>
       <r>     5.4876     0.0005    32.0000 </r>
       <r>     5.5400     0.0000    32.0000 </r>
       <r>     5.5924     0.0001    32.0000 </r>
       <r>     5.6448     0.0025    32.0001 </r>
       <r>     5.6972     0.0513    32.0028 </r>
       <r>     5.7496     0.6171    32.0352 </r>
       <r>     5.8021     4.3656    32.2640 </r>
       <r>     5.8545    18.2106    33.2186 </r>
       <r>     5.9069    44.8686    35.5704 </r>
       <r>     5.9593    65.3714    38.9970 </r>
       <r>     6.0117    56.3480    41.9506 </r>
       <r>     6.0642    28.7295    43.4566 </r>
       <r>     6.1166     8.6568    43.9103 </r>
       <r>     6.1690     1.5394    43.9910 </r>
       <r>     6.2214     0.1612    43.9995 </r>
       <r>     6.2738     0.0099    44.0000 </r>
       <r>     6.3262     0.0004    44.0000 </r>
       <r>     6.3787     0.0000    44.0000 </r>
       <r>     6.4311     0.0000    44.0000 </r>
       <r>     6.4835     0.0000    44.0000 </r>
       <r>     6.5359     0.0000    44.0000 </r>
       <r>     6.5883     0.0000    44.0000 </r>
       <r>     6.6407     0.0000    44.0000 </r>
       <r>     6.6932     0.0000    44.0000 </r>
       <r>     6.7456     0.0000    44.0000 </r>
       <r>     6.7980     0.0000    44.0000 </r>
       <r>     6.8504     0.0000    44.0000 </r>
       <r>     6.9028     0.0000    44.0000 </r>
       <r>     6.9552     0.0000    44.0000 </r>
       <r>     7.0077     0.0001    44.0000 </r>
       <r>     7.0601     0.0017    44.0001 </r>
       <r>     7.1125     0.0275    44.0015 </r>
       <r>     7.1649     0.2609    44.0152 </r>
       <r>     7.2173     1.4613    44.0918 </r>
       <r>     7.2697     4.8361    44.3453 </r>
       <r>     7.3222     9.5530    44.8460 </r>
       <r>     7.3746    11.9012    45.4699 </r>
       <r>     7.4270    12.1638    46.1075 </r>
       <r>     7.4794    15.9782    46.9450 </r>
       <r>     7.5318    21.7699    48.0861 </r>
       <r>     7.5843    20.3124    49.1508 </r>
       <r>     7.6367    11.4870    49.7529 </r>
       <r>     7.6891     3.8540    49.9550 </r>
       <r>     7.7415     0.7637    49.9950 </r>
       <r>     7.7939     0.0892    49.9997 </r>
       <r>     7.8463     0.0061    50.0000 </r>
       <r>     7.8988     0.0002    50.0000 </r>
       <r>     7.9512     0.0000    50.0000 </r>
       <r>     8.0036     0.0000    50.0000 </r>
       <r>     8.0560     0.0000    50.0000 </r>
       <r>     8.1084     0.0000    50.0000 </r>
       <r>     8.1608     0.0000    50.0000 </r>
       <r>     8.2133     0.0000    50.0000 </r>
       <r>     8.2657     0.0000    50.0000 </r>
       <r>     8.3181     0.0000    50.0000 </r>
       <r>     8.3705     0.0000    50.0000 </r>
       <r>     8.4229     0.0000    50.0000 </r>
       <r>     8.4753     0.0000    50.0000 </r>
       <r>     8.5278     0.0000    50.0000 </r>
      </set>
     </set>
    </array>
   </total>
  </dos>
 </calculation>
 <structure name="finalpos" >
  <crystal>
   <varray name="basis" >
    <v>       5.62639177      -0.00000000       0.00000000 </v>
    <v>      -0.00000000       5.62639177      -0.00000000 </v>
    <v>       0.00000000      -0.00000000       5.62639177 </v>
   </varray>
   <i name="volume">    178.11065745 </i>
   <varray name="rec_basis" >
    <v>       0.17773380       0.00000000      -0.00000000 </v>
    <v>       0.00000000       0.17773380       0.00000000 </v>
    <v>      -0.00000000       0.00000000       0.17773380 </v>
   </varray>
  </crystal>
  <varray name="positions" >
   <v>      -0.00000000       0.00000000       0.00000000 </v>
   <v>       0.00000000       0.50000000       0.50000000 </v>
   <v>       0.50000000      -0.00000000       0.50000000 </v>
   <v>       0.50000000       0.50000000      -0.00000000 </v>
   <v>       0.25000000       0.25000000       0.25000000 </v>
   <v>       0.75000000       0.75000000       0.25000000 </v>
   <v>       0.75000000       0.25000000       0.75000000 </v>
   <v>       0.25000000       0.75000000       0.75000000 </v>
  </varray>
 </structure>
</modeling>
