diamond Si                              
           1
     6.135211   -0.000000    0.000000
    -0.000000    6.135211   -0.000000
     0.000000   -0.000000    6.135211
   Si
   8
Direct configuration=     1
   0.00000000  0.00000000  0.00000000
   0.00000000  0.50000000  0.50000000
   0.50000000  0.00000000  0.50000000
   0.50000000  0.50000000  0.00000000
   0.25000000  0.25000000  0.25000000
   0.75000000  0.75000000  0.25000000
   0.75000000  0.25000000  0.75000000
   0.25000000  0.75000000  0.75000000
diamond Si                              
           1
     6.065985   -0.000000    0.000000
    -0.000000    6.065985   -0.000000
     0.000000   -0.000000    6.065985
   Si
   8
Direct configuration=     2
  -0.00000000  0.00000000  0.00000000
   0.00000000  0.50000000  0.50000000
   0.50000000 -0.00000000  0.50000000
   0.50000000  0.50000000 -0.00000000
   0.25000000  0.25000000  0.25000000
   0.75000000  0.75000000  0.25000000
   0.75000000  0.25000000  0.75000000
   0.25000000  0.75000000  0.75000000
diamond Si                              
           1
     5.836796   -0.000000    0.000000
    -0.000000    5.836796   -0.000000
     0.000000   -0.000000    5.836796
   Si
   8
Direct configuration=     3
  -0.00000000  0.00000000  0.00000000
   0.00000000  0.50000000  0.50000000
   0.50000000 -0.00000000  0.50000000
   0.50000000  0.50000000 -0.00000000
   0.25000000  0.25000000  0.25000000
   0.75000000  0.75000000  0.25000000
   0.75000000  0.25000000  0.75000000
   0.25000000  0.75000000  0.75000000
diamond Si                              
           1
     5.633898   -0.000000    0.000000
    -0.000000    5.633898   -0.000000
     0.000000   -0.000000    5.633898
   Si
   8
Direct configuration=     4
  -0.00000000  0.00000000  0.00000000
   0.00000000  0.50000000  0.50000000
   0.50000000 -0.00000000  0.50000000
   0.50000000  0.50000000 -0.00000000
   0.25000000  0.25000000  0.25000000
   0.75000000  0.75000000  0.25000000
   0.75000000  0.25000000  0.75000000
   0.25000000  0.75000000  0.75000000
diamond Si                              
           1
     5.626392   -0.000000    0.000000
    -0.000000    5.626392   -0.000000
     0.000000   -0.000000    5.626392
   Si
   8
Direct configuration=     5
  -0.00000000  0.00000000  0.00000000
   0.00000000  0.50000000  0.50000000
   0.50000000 -0.00000000  0.50000000
   0.50000000  0.50000000 -0.00000000
   0.25000000  0.25000000  0.25000000
   0.75000000  0.75000000  0.25000000
   0.75000000  0.25000000  0.75000000
   0.25000000  0.75000000  0.75000000
diamond Si                              
           1
     5.626392   -0.000000    0.000000
    -0.000000    5.626392   -0.000000
     0.000000   -0.000000    5.626392
   Si
   8
Direct configuration=     6
  -0.00000000  0.00000000  0.00000000
   0.00000000  0.50000000  0.50000000
   0.50000000 -0.00000000  0.50000000
   0.50000000  0.50000000 -0.00000000
   0.25000000  0.25000000  0.25000000
   0.75000000  0.75000000  0.25000000
   0.75000000  0.25000000  0.75000000
   0.25000000  0.75000000  0.75000000
