   8   8   0   0
  0.2002393E+02  0.5431000E-09  0.5431000E-09  0.5431000E-09  0.1000000E-14
  1.000000000000000E-004
  CAR 
 diamond Si                              
     11.84858176     -7.20026185  301      5.91405126      1.00000000
     -7.200  0.0000E+00  0.0000E+00
     -7.137  0.0000E+00  0.0000E+00
     -7.073  0.0000E+00  0.0000E+00
     -7.010  0.0000E+00  0.0000E+00
     -6.946  0.0000E+00  0.0000E+00
     -6.883  0.0000E+00  0.0000E+00
     -6.819  0.0000E+00  0.0000E+00
     -6.756  0.6130E-17  0.3893E-18
     -6.692  0.5226E-14  0.3322E-15
     -6.629  0.2223E-11  0.1415E-12
     -6.565  0.4459E-09  0.2846E-10
     -6.502  0.4295E-07  0.2756E-08
     -6.438  0.2030E-05  0.1317E-06
     -6.375  0.4820E-04  0.3192E-05
     -6.311  0.5893E-03  0.4061E-04
     -6.248  0.3817E-02  0.2830E-03
     -6.184  0.1375E-01  0.1156E-02
     -6.121  0.3059E-01  0.3099E-02
     -6.057  0.4949E-01  0.6241E-02
     -5.994  0.6484E-01  0.1036E-01
     -5.930  0.7458E-01  0.1509E-01
     -5.867  0.8717E-01  0.2063E-01
     -5.803  0.9927E-01  0.2693E-01
     -5.740  0.1048E+00  0.3359E-01
     -5.676  0.1076E+00  0.4042E-01
     -5.613  0.1173E+00  0.4787E-01
     -5.549  0.1363E+00  0.5652E-01
     -5.486  0.1435E+00  0.6563E-01
     -5.422  0.1337E+00  0.7412E-01
     -5.359  0.1321E+00  0.8251E-01
     -5.295  0.1578E+00  0.9253E-01
     -5.232  0.1788E+00  0.1039E+00
     -5.168  0.1755E+00  0.1150E+00
     -5.105  0.1653E+00  0.1255E+00
     -5.041  0.1724E+00  0.1365E+00
     -4.978  0.1842E+00  0.1482E+00
     -4.914  0.1857E+00  0.1600E+00
     -4.851  0.1998E+00  0.1726E+00
     -4.787  0.2283E+00  0.1871E+00
     -4.724  0.2340E+00  0.2020E+00
     -4.660  0.2134E+00  0.2155E+00
     -4.597  0.1988E+00  0.2282E+00
     -4.533  0.2063E+00  0.2413E+00
     -4.470  0.2403E+00  0.2565E+00
     -4.406  0.2848E+00  0.2746E+00
     -4.343  0.2905E+00  0.2930E+00
     -4.279  0.2602E+00  0.3096E+00
     -4.216  0.2625E+00  0.3262E+00
     -4.152  0.2908E+00  0.3447E+00
     -4.089  0.2974E+00  0.3636E+00
     -4.025  0.3058E+00  0.3830E+00
     -3.962  0.3343E+00  0.4042E+00
     -3.898  0.3687E+00  0.4276E+00
     -3.835  0.4197E+00  0.4543E+00
     -3.771  0.4521E+00  0.4830E+00
     -3.708  0.3960E+00  0.5082E+00
     -3.644  0.3138E+00  0.5281E+00
     -3.581  0.3310E+00  0.5491E+00
     -3.517  0.3754E+00  0.5729E+00
     -3.454  0.3331E+00  0.5941E+00
     -3.390  0.2935E+00  0.6127E+00
     -3.327  0.3097E+00  0.6324E+00
     -3.264  0.3383E+00  0.6539E+00
     -3.200  0.3720E+00  0.6775E+00
     -3.137  0.3632E+00  0.7005E+00
     -3.073  0.2915E+00  0.7190E+00
     -3.010  0.2103E+00  0.7324E+00
     -2.946  0.1716E+00  0.7433E+00
     -2.883  0.1720E+00  0.7542E+00
     -2.819  0.2096E+00  0.7675E+00
     -2.756  0.2851E+00  0.7856E+00
     -2.692  0.3253E+00  0.8063E+00
     -2.629  0.2870E+00  0.8245E+00
     -2.565  0.2208E+00  0.8385E+00
     -2.502  0.1516E+00  0.8482E+00
     -2.438  0.9863E-01  0.8544E+00
     -2.375  0.7843E-01  0.8594E+00
     -2.311  0.7831E-01  0.8644E+00
     -2.248  0.8664E-01  0.8699E+00
     -2.184  0.9457E-01  0.8759E+00
     -2.121  0.1038E+00  0.8825E+00
     -2.057  0.1162E+00  0.8898E+00
     -1.994  0.1172E+00  0.8973E+00
     -1.930  0.9395E-01  0.9033E+00
     -1.867  0.6498E-01  0.9074E+00
     -1.803  0.5169E-01  0.9107E+00
     -1.740  0.5022E-01  0.9139E+00
     -1.676  0.5647E-01  0.9174E+00
     -1.613  0.6576E-01  0.9216E+00
     -1.549  0.9950E-01  0.9279E+00
     -1.486  0.2218E+00  0.9420E+00
     -1.422  0.3842E+00  0.9664E+00
     -1.359  0.3978E+00  0.9917E+00
     -1.295  0.2910E+00  0.1010E+01
     -1.232  0.2639E+00  0.1027E+01
     -1.168  0.3687E+00  0.1050E+01
     -1.105  0.5246E+00  0.1084E+01
     -1.041  0.6080E+00  0.1122E+01
     -0.978  0.5953E+00  0.1160E+01
     -0.914  0.5146E+00  0.1193E+01
     -0.851  0.4077E+00  0.1219E+01
     -0.787  0.4133E+00  0.1245E+01
     -0.724  0.4804E+00  0.1275E+01
     -0.660  0.4067E+00  0.1301E+01
     -0.597  0.2365E+00  0.1316E+01
     -0.533  0.1769E+00  0.1327E+01
     -0.470  0.2481E+00  0.1343E+01
     -0.406  0.3182E+00  0.1363E+01
     -0.343  0.2870E+00  0.1382E+01
     -0.279  0.2029E+00  0.1394E+01
     -0.216  0.1504E+00  0.1404E+01
     -0.152  0.1537E+00  0.1414E+01
     -0.089  0.2473E+00  0.1429E+01
     -0.025  0.3404E+00  0.1451E+01
      0.038  0.2923E+00  0.1470E+01
      0.102  0.1687E+00  0.1480E+01
      0.165  0.9281E-01  0.1486E+01
      0.229  0.8735E-01  0.1492E+01
      0.292  0.1339E+00  0.1500E+01
      0.356  0.2101E+00  0.1514E+01
      0.419  0.2365E+00  0.1529E+01
      0.483  0.1680E+00  0.1539E+01
      0.546  0.1099E+00  0.1546E+01
      0.610  0.9398E-01  0.1552E+01
      0.673  0.8316E-01  0.1558E+01
      0.737  0.1109E+00  0.1565E+01
      0.800  0.1904E+00  0.1577E+01
      0.864  0.2267E+00  0.1591E+01
      0.927  0.1599E+00  0.1601E+01
      0.991  0.7907E-01  0.1606E+01
      1.054  0.4917E-01  0.1609E+01
      1.118  0.5274E-01  0.1613E+01
      1.181  0.6826E-01  0.1617E+01
      1.245  0.1079E+00  0.1624E+01
      1.308  0.1946E+00  0.1636E+01
      1.372  0.2683E+00  0.1653E+01
      1.435  0.3074E+00  0.1673E+01
      1.499  0.3813E+00  0.1697E+01
      1.562  0.4621E+00  0.1726E+01
      1.626  0.4798E+00  0.1757E+01
      1.689  0.4578E+00  0.1786E+01
      1.753  0.4875E+00  0.1817E+01
      1.816  0.5692E+00  0.1853E+01
      1.880  0.5882E+00  0.1890E+01
      1.943  0.5125E+00  0.1923E+01
      2.007  0.4242E+00  0.1950E+01
      2.070  0.3738E+00  0.1974E+01
      2.134  0.3953E+00  0.1999E+01
      2.197  0.4711E+00  0.2029E+01
      2.261  0.5154E+00  0.2061E+01
      2.324  0.5161E+00  0.2094E+01
      2.388  0.5241E+00  0.2127E+01
      2.451  0.5271E+00  0.2161E+01
      2.515  0.5156E+00  0.2194E+01
      2.578  0.5040E+00  0.2226E+01
      2.642  0.4830E+00  0.2256E+01
      2.705  0.5112E+00  0.2289E+01
      2.769  0.6047E+00  0.2327E+01
      2.832  0.6869E+00  0.2371E+01
      2.896  0.7193E+00  0.2416E+01
      2.959  0.6979E+00  0.2461E+01
      3.023  0.6776E+00  0.2504E+01
      3.086  0.6731E+00  0.2546E+01
      3.150  0.6436E+00  0.2587E+01
      3.213  0.5976E+00  0.2625E+01
      3.277  0.5881E+00  0.2663E+01
      3.340  0.6618E+00  0.2705E+01
      3.404  0.7393E+00  0.2752E+01
      3.467  0.6851E+00  0.2795E+01
      3.531  0.5513E+00  0.2830E+01
      3.594  0.4953E+00  0.2862E+01
      3.658  0.5620E+00  0.2897E+01
      3.721  0.6373E+00  0.2938E+01
      3.785  0.6511E+00  0.2979E+01
      3.848  0.6064E+00  0.3018E+01
      3.912  0.5460E+00  0.3052E+01
      3.975  0.5202E+00  0.3085E+01
      4.039  0.4973E+00  0.3117E+01
      4.102  0.5143E+00  0.3149E+01
      4.166  0.5993E+00  0.3188E+01
      4.229  0.6228E+00  0.3227E+01
      4.293  0.5338E+00  0.3261E+01
      4.356  0.4346E+00  0.3289E+01
      4.420  0.4019E+00  0.3314E+01
      4.483  0.4417E+00  0.3342E+01
      4.547  0.4787E+00  0.3373E+01
      4.610  0.4083E+00  0.3398E+01
      4.674  0.2924E+00  0.3417E+01
      4.737  0.2383E+00  0.3432E+01
      4.801  0.2326E+00  0.3447E+01
      4.864  0.2265E+00  0.3461E+01
      4.928  0.2314E+00  0.3476E+01
      4.991  0.2286E+00  0.3490E+01
      5.054  0.1811E+00  0.3502E+01
      5.118  0.1429E+00  0.3511E+01
      5.181  0.1366E+00  0.3520E+01
      5.245  0.1214E+00  0.3527E+01
      5.308  0.1067E+00  0.3534E+01
      5.372  0.1051E+00  0.3541E+01
      5.435  0.9351E-01  0.3547E+01
      5.499  0.6594E-01  0.3551E+01
      5.562  0.3853E-01  0.3553E+01
      5.626  0.2082E-01  0.3555E+01
      5.689  0.9346E-02  0.3555E+01
      5.753  0.2578E-02  0.3556E+01
      5.816  0.3683E-03  0.3556E+01
      5.880  0.2585E-04  0.3556E+01
      5.943  0.1541E-05  0.3556E+01
      6.007  0.2109E-04  0.3556E+01
      6.070  0.3165E-03  0.3556E+01
      6.134  0.2305E-02  0.3556E+01
      6.197  0.8430E-02  0.3556E+01
      6.261  0.1726E-01  0.3557E+01
      6.324  0.2954E-01  0.3559E+01
      6.388  0.6378E-01  0.3563E+01
      6.451  0.1168E+00  0.3571E+01
      6.515  0.1411E+00  0.3580E+01
      6.578  0.1382E+00  0.3588E+01
      6.642  0.1513E+00  0.3598E+01
      6.705  0.1772E+00  0.3609E+01
      6.769  0.1900E+00  0.3621E+01
      6.832  0.1803E+00  0.3633E+01
      6.896  0.1912E+00  0.3645E+01
      6.959  0.2651E+00  0.3662E+01
      7.023  0.3229E+00  0.3682E+01
      7.086  0.3126E+00  0.3702E+01
      7.150  0.2795E+00  0.3720E+01
      7.213  0.2818E+00  0.3738E+01
      7.277  0.3600E+00  0.3761E+01
      7.340  0.4314E+00  0.3788E+01
      7.404  0.4236E+00  0.3815E+01
      7.467  0.3976E+00  0.3840E+01
      7.531  0.4216E+00  0.3867E+01
      7.594  0.4757E+00  0.3897E+01
      7.658  0.5354E+00  0.3931E+01
      7.721  0.6260E+00  0.3971E+01
      7.785  0.7067E+00  0.4016E+01
      7.848  0.7398E+00  0.4063E+01
      7.912  0.7689E+00  0.4112E+01
      7.975  0.7608E+00  0.4160E+01
      8.039  0.6580E+00  0.4202E+01
      8.102  0.5770E+00  0.4238E+01
      8.166  0.6106E+00  0.4277E+01
      8.229  0.6481E+00  0.4318E+01
      8.293  0.5705E+00  0.4354E+01
      8.356  0.4694E+00  0.4384E+01
      8.420  0.4745E+00  0.4414E+01
      8.483  0.5244E+00  0.4448E+01
      8.547  0.5435E+00  0.4482E+01
      8.610  0.5472E+00  0.4517E+01
      8.674  0.5367E+00  0.4551E+01
      8.737  0.5026E+00  0.4583E+01
      8.801  0.5623E+00  0.4619E+01
      8.864  0.7965E+00  0.4669E+01
      8.928  0.1003E+01  0.4733E+01
      8.991  0.9673E+00  0.4794E+01
      9.055  0.7961E+00  0.4845E+01
      9.118  0.6843E+00  0.4888E+01
      9.182  0.6664E+00  0.4931E+01
      9.245  0.7114E+00  0.4976E+01
      9.309  0.7669E+00  0.5024E+01
      9.372  0.7787E+00  0.5074E+01
      9.436  0.7261E+00  0.5120E+01
      9.499  0.6302E+00  0.5160E+01
      9.563  0.5672E+00  0.5196E+01
      9.626  0.5531E+00  0.5231E+01
      9.690  0.5183E+00  0.5264E+01
      9.753  0.4569E+00  0.5293E+01
      9.817  0.3986E+00  0.5318E+01
      9.880  0.3889E+00  0.5343E+01
      9.944  0.4233E+00  0.5370E+01
     10.007  0.4428E+00  0.5398E+01
     10.071  0.4166E+00  0.5425E+01
     10.134  0.3822E+00  0.5449E+01
     10.198  0.3978E+00  0.5474E+01
     10.261  0.3989E+00  0.5499E+01
     10.325  0.3019E+00  0.5519E+01
     10.388  0.1886E+00  0.5531E+01
     10.452  0.1203E+00  0.5538E+01
     10.515  0.8395E-01  0.5544E+01
     10.579  0.6336E-01  0.5548E+01
     10.642  0.4500E-01  0.5550E+01
     10.706  0.2930E-01  0.5552E+01
     10.769  0.2031E-01  0.5554E+01
     10.833  0.1601E-01  0.5555E+01
     10.896  0.1018E-01  0.5555E+01
     10.960  0.4078E-02  0.5555E+01
     11.023  0.9171E-03  0.5556E+01
     11.087  0.1061E-03  0.5556E+01
     11.150  0.5960E-05  0.5556E+01
     11.214  0.1573E-06  0.5556E+01
     11.277  0.1917E-08  0.5556E+01
     11.341  0.1069E-10  0.5556E+01
     11.404  0.2713E-13  0.5556E+01
     11.468  0.3153E-16  0.5556E+01
     11.531  0.0000E+00  0.5556E+01
     11.595  0.0000E+00  0.5556E+01
     11.658  0.0000E+00  0.5556E+01
     11.722  0.0000E+00  0.5556E+01
     11.785  0.0000E+00  0.5556E+01
     11.849  0.0000E+00  0.5556E+01
