The current hostname is p0003.ten.osc.edu
The current working directory is /users/PAA0028/sjtuwjx1994
Switching to the working directory /users/PAA0028/sjtuwjx1994/repos/vasp_tutorials/lessons/lesson_02/encut_convergence/900
switching compiler chain
module load intel/19.0.5
module load intelmpi/2019.3
VASP_STD_BIN=/users/PAA0028/sjtuwjx1994/usr/local/vasp/vasp.5.4.1/bin/vasp_std
 running on   40 total cores
 distrk:  each k-point on   40 cores,    1 groups
 distr:  one band on    8 cores,    5 groups
 using from now: INCAR     
 vasp.5.4.1 05Feb16 (build Feb 24 2020 14:33:01) complex                        
  
 POSCAR found type information on POSCAR  Si
 POSCAR found :  1 types and       8 ions
 scaLAPACK will be used
 LDA part: xc-table for Pade appr. of Perdew
 POSCAR, INCAR and KPOINTS ok, starting setup
 FFT: planning ...
 WAVECAR not read
 entering main loop
       N       E                     dE             d eps       ncg     rms          rms(c)
DAV:   1     0.976727804528E+02    0.97673E+02   -0.17146E+04  2800   0.163E+03
DAV:   2    -0.374608229683E+02   -0.13513E+03   -0.13026E+03  3625   0.179E+02
DAV:   3    -0.440111016654E+02   -0.65503E+01   -0.64930E+01  3645   0.362E+01    0.106E+01
DAV:   4    -0.436084916644E+02    0.40261E+00   -0.98245E-01  3665   0.526E+00    0.574E+00
DAV:   5    -0.433720995100E+02    0.23639E+00   -0.44280E-01  3380   0.271E+00    0.593E-01
DAV:   6    -0.433779734893E+02   -0.58740E-02   -0.19787E-02  3725   0.658E-01    0.241E-01
DAV:   7    -0.433804600753E+02   -0.24866E-02   -0.50668E-03  3135   0.307E-01    0.921E-02
DAV:   8    -0.433804550772E+02    0.49982E-05   -0.14978E-04  3125   0.606E-02
   1 F= -.43380455E+02 E0= -.43380455E+02  d E =-.433805E+02
 curvature:   0.00 expect dE= 0.000E+00 dE for cont linesearch  0.000E+00
 trial: gam= 0.00000 g(F)=  0.356E-58 g(S)=  0.140E+00 ort = 0.000E+00 (trialstep = 0.100E+01)
 search vector abs. value=  0.140E+00
 bond charge predicted
       N       E                     dE             d eps       ncg     rms          rms(c)
DAV:   1    -0.433969788132E+02   -0.16519E-01   -0.33785E+00  3200   0.747E+00
DAV:   2    -0.434047865771E+02   -0.78078E-02   -0.78077E-02  3580   0.125E+00
DAV:   3    -0.434048735536E+02   -0.86976E-04   -0.86976E-04  3620   0.163E-01    0.220E+00
DAV:   4    -0.433306753511E+02    0.74198E-01   -0.35782E-02  2915   0.679E-01    0.110E+00
DAV:   5    -0.432937878076E+02    0.36888E-01   -0.54800E-02  3295   0.855E-01    0.319E-01
DAV:   6    -0.432935967029E+02    0.19110E-03   -0.28457E-03  3345   0.253E-01    0.118E-01
DAV:   7    -0.432935151226E+02    0.81580E-04   -0.30189E-04  3275   0.671E-02
   2 F= -.43293515E+02 E0= -.43293515E+02  d E =0.869400E-01
 trial-energy change:    0.086940  1 .order    0.080951   -0.139686    0.301588
 step:   0.2995(harm=  0.3166)  dis= 0.00000  next Energy=   -43.401210 (dE=-0.208E-01)
 bond charge predicted
       N       E                     dE             d eps       ncg     rms          rms(c)
DAV:   1    -0.434507991313E+02   -0.15720E+00   -0.17216E+00  3185   0.547E+00
DAV:   2    -0.434556682301E+02   -0.48691E-02   -0.48691E-02  3565   0.921E-01
DAV:   3    -0.434557045461E+02   -0.36316E-04   -0.36316E-04  3425   0.108E-01    0.158E+00
DAV:   4    -0.434187066726E+02    0.36998E-01   -0.17681E-02  2830   0.483E-01    0.773E-01
DAV:   5    -0.434005028384E+02    0.18204E-01   -0.26598E-02  3190   0.603E-01    0.249E-01
DAV:   6    -0.434004848874E+02    0.17951E-04   -0.14101E-03  3385   0.183E-01    0.100E-01
DAV:   7    -0.434004102532E+02    0.74634E-04   -0.12177E-04  2215   0.452E-02
   3 F= -.43400410E+02 E0= -.43400410E+02  d E =-.199552E-01
 curvature:  -0.16 expect dE=-0.472E-05 dE for cont linesearch -0.472E-05
 trial: gam= 0.00000 g(F)=  0.488E-58 g(S)=  0.298E-04 ort =-0.204E-02 (trialstep = 0.860E+00)
 search vector abs. value=  0.298E-04
 reached required accuracy - stopping structural energy minimisation
 writing wavefunctions

-----------------------
Resources requested:
nodes=1:ppn=40
mem=190440mb
-----------------------
Resources used:
cput=00:32:06
walltime=00:00:52
mem=3.823GB
vmem=156.626GB
-----------------------
Resource units charged (estimate):
0.057 RUs
-----------------------
