 vasp.5.4.1 05Feb16 (build Feb 24 2020 14:33:01) complex                        
  
 executed on           IFC91_ompi date 2020.02.27  23:49:54
 running on   40 total cores
 distrk:  each k-point on   40 cores,    1 groups
 distr:  one band on NCORES_PER_BAND=   8 cores,    5 groups


--------------------------------------------------------------------------------------------------------


 INCAR:
 POTCAR:    PAW_PBE Si 05Jan2001                  
 POTCAR:    PAW_PBE Si 05Jan2001                  
   VRHFIN =Si: s2p2                                                             
   LEXCH  = PE                                                                  
   EATOM  =   103.0669 eV,    7.5752 Ry                                         
                                                                                
   TITEL  = PAW_PBE Si 05Jan2001                                                
   LULTRA =        F    use ultrasoft PP ?                                      
   IUNSCR =        1    unscreen: 0-lin 1-nonlin 2-no                           
   RPACOR =    1.500    partial core radius                                     
   POMASS =   28.085; ZVAL   =    4.000    mass and valenz                      
   RCORE  =    1.900    outmost cutoff radius                                   
   RWIGS  =    2.480; RWIGS  =    1.312    wigner-seitz radius (au A)           
   ENMAX  =  245.345; ENMIN  =  184.009 eV                                      
   ICORE  =        2    local potential                                         
   LCOR   =        T    correct aug charges                                     
   LPAW   =        T    paw PP                                                  
   EAUG   =  322.069                                                            
   DEXC   =    0.000                                                            
   RMAX   =    1.950    core radius for proj-oper                               
   RAUG   =    1.300    factor for augmentation sphere                          
   RDEP   =    1.993    radius for radial grids                                 
   RDEPT  =    1.837    core radius for aug-charge                              
                                                                                
   Atomic configuration                                                         
    6 entries                                                                   
     n  l   j            E        occ.                                          
     1  0  0.50     -1785.8828   2.0000                                         
     2  0  0.50      -139.4969   2.0000                                         
     2  1  1.50       -95.5546   6.0000                                         
     3  0  0.50       -10.8127   2.0000                                         
     3  1  0.50        -4.0811   2.0000                                         
     3  2  1.50        -4.0817   0.0000                                         
   Description                                                                  
     l       E           TYP  RCUT    TYP  RCUT                                 
     0    -10.8127223     23  1.900                                             
     0     -7.6451159     23  1.900                                             
     1     -4.0811372     23  1.900                                             
     1      2.4879257     23  1.900                                             
     2     -4.0817478      7  1.900                                             
  local pseudopotential read in
  partial core-charges read in
  partial kinetic energy density read in
  atomic valenz-charges read in
  non local Contribution for L=           0  read in
    real space projection operators read in
  non local Contribution for L=           0  read in
    real space projection operators read in
  non local Contribution for L=           1  read in
    real space projection operators read in
  non local Contribution for L=           1  read in
    real space projection operators read in
    PAW grid and wavefunctions read in
 
   number of l-projection  operators is LMAX  =           4
   number of lm-projection operators is LMMAX =           8
 
  PAW_PBE Si 05Jan2001                  :
 energy of atom  1       EATOM= -103.0669
 kinetic energy error for atom=    0.0001 (will be added to EATOM!!)
 
 
 POSCAR: Si dia                                  
  positions in direct lattice
  No initial velocities read in
 exchange correlation table for  LEXCH =        8
   RHO(1)=    0.500       N(1)  =     2000
   RHO(2)=  100.500       N(2)  =     4000
 


--------------------------------------------------------------------------------------------------------


 ion  position               nearest neighbor table
   1  0.000  0.000  0.000-   5 2.35   6 2.35   7 2.35   8 2.35
   2  0.000  0.500  0.500-   5 2.35   6 2.35   7 2.35   8 2.35
   3  0.500  0.000  0.500-   5 2.35   6 2.35   7 2.35   8 2.35
   4  0.500  0.500  0.000-   5 2.35   6 2.35   7 2.35   8 2.35
   5  0.250  0.250  0.250-   1 2.35   2 2.35   3 2.35   4 2.35
   6  0.750  0.750  0.250-   1 2.35   2 2.35   3 2.35   4 2.35
   7  0.750  0.250  0.750-   1 2.35   2 2.35   3 2.35   4 2.35
   8  0.250  0.750  0.750-   1 2.35   2 2.35   3 2.35   4 2.35
 
  LATTYP: Found a simple cubic cell.
 ALAT       =     5.4310000000
  
  Lattice vectors:
  
 A1 = (   5.4310000000,   0.0000000000,   0.0000000000)
 A2 = (   0.0000000000,   5.4310000000,   0.0000000000)
 A3 = (   0.0000000000,   0.0000000000,   5.4310000000)


Analysis of symmetry for initial positions (statically):
=====================================================================
 Subroutine PRICEL returns following result:
 
  LATTYP: Found a face centered cubic cell.
 ALAT       =     5.4310000000
  
  Lattice vectors:
  
 A1 = (   2.7155000000,   2.7155000000,   0.0000000000)
 A2 = (   2.7155000000,   0.0000000000,  -2.7155000000)
 A3 = (   0.0000000000,   2.7155000000,  -2.7155000000)
 
   4 primitive cells build up your supercell.
 

 Routine SETGRP: Setting up the symmetry group for a 
 simple cubic supercell.


 Subroutine GETGRP returns: Found 48 space group operations
 (whereof 24 operations were pure point group operations)
 out of a pool of 48 trial point group operations.


The static configuration has the point symmetry T_d .
 The point group associated with its full space group is O_h .


Analysis of symmetry for dynamics (positions and initial velocities):
=====================================================================
 Subroutine PRICEL returns following result:
 
  LATTYP: Found a face centered cubic cell.
 ALAT       =     5.4310000000
  
  Lattice vectors:
  
 A1 = (   2.7155000000,   2.7155000000,   0.0000000000)
 A2 = (   2.7155000000,   0.0000000000,  -2.7155000000)
 A3 = (   0.0000000000,   2.7155000000,  -2.7155000000)
 
   4 primitive cells build up your supercell.
 

 Routine SETGRP: Setting up the symmetry group for a 
 simple cubic supercell.


 Subroutine GETGRP returns: Found 48 space group operations
 (whereof 24 operations were pure point group operations)
 out of a pool of 48 trial point group operations.


The dynamic configuration has the point symmetry T_d .
 The point group associated with its full space group is O_h .


 Subroutine INISYM returns: Found 48 space group operations
 (whereof 24 operations are pure point group operations),
 and found     4 'primitive' translations

 
 
 KPOINTS: k-points                                

Automatic generation of k-mesh.
Space group operators:
 irot       det(A)        alpha          n_x          n_y          n_z        tau_x        tau_y        tau_z
    1     1.000000     0.000001     1.000000     0.000000     0.000000     0.000000     0.000000     0.000000
    2     1.000000   120.000000    -0.577350    -0.577350    -0.577350     0.000000     0.000000     0.000000
    3     1.000000   120.000000     0.577350     0.577350     0.577350     0.000000     0.000000     0.000000
    4    -1.000000    90.000000     0.000000     0.000000    -1.000000     0.000000     0.000000     0.000000
    5    -1.000000   180.000000     0.000000     0.707107     0.707107     0.000000     0.000000     0.000000
    6    -1.000000    90.000000     0.000000     1.000000     0.000000     0.000000     0.000000     0.000000
    7     1.000000   180.000000     0.000000     0.000000     1.000000     0.000000     0.000000     0.000000
    8     1.000000   120.000000    -0.577350     0.577350     0.577350     0.000000     0.000000     0.000000
    9     1.000000   120.000000    -0.577350     0.577350    -0.577350     0.000000     0.000000     0.000000
   10    -1.000000    90.000000     0.000000     0.000000     1.000000     0.000000     0.000000     0.000000
   11    -1.000000    90.000000    -1.000000     0.000000     0.000000     0.000000     0.000000     0.000000
   12    -1.000000   180.000000     0.707107     0.000000     0.707107     0.000000     0.000000     0.000000
   13     1.000000   120.000000     0.577350    -0.577350     0.577350     0.000000     0.000000     0.000000
   14     1.000000   120.000000    -0.577350    -0.577350     0.577350     0.000000     0.000000     0.000000
   15     1.000000   180.000000     1.000000     0.000000     0.000000     0.000000     0.000000     0.000000
   16    -1.000000    90.000000     0.000000    -1.000000     0.000000     0.000000     0.000000     0.000000
   17    -1.000000   180.000000     0.707107     0.707107     0.000000     0.000000     0.000000     0.000000
   18    -1.000000    90.000000     1.000000     0.000000     0.000000     0.000000     0.000000     0.000000
   19     1.000000   120.000000     0.577350    -0.577350    -0.577350     0.000000     0.000000     0.000000
   20     1.000000   180.000000     0.000000     1.000000     0.000000     0.000000     0.000000     0.000000
   21     1.000000   120.000000     0.577350     0.577350    -0.577350     0.000000     0.000000     0.000000
   22    -1.000000   180.000000     0.000000    -0.707107     0.707107     0.000000     0.000000     0.000000
   23    -1.000000   180.000000     0.707107    -0.707107     0.000000     0.000000     0.000000     0.000000
   24    -1.000000   180.000000     0.707107     0.000000    -0.707107     0.000000     0.000000     0.000000
   25    -1.000000     0.000001     1.000000     0.000000     0.000000     0.750000     0.750000    -0.750000
   26    -1.000000   120.000000    -0.577350    -0.577350    -0.577350     0.750000     0.750000    -0.750000
   27    -1.000000   120.000000     0.577350     0.577350     0.577350     0.750000     0.750000    -0.750000
   28     1.000000    90.000000     0.000000     0.000000    -1.000000     0.750000     0.750000    -0.750000
   29     1.000000   180.000000     0.000000     0.707107     0.707107     0.750000     0.750000    -0.750000
   30     1.000000    90.000000     0.000000     1.000000     0.000000     0.750000     0.750000    -0.750000
   31    -1.000000   180.000000     0.000000     0.000000     1.000000     0.750000     0.750000    -0.750000
   32    -1.000000   120.000000    -0.577350     0.577350     0.577350     0.750000     0.750000    -0.750000
   33    -1.000000   120.000000    -0.577350     0.577350    -0.577350     0.750000     0.750000    -0.750000
   34     1.000000    90.000000     0.000000     0.000000     1.000000     0.750000     0.750000    -0.750000
   35     1.000000    90.000000    -1.000000     0.000000     0.000000     0.750000     0.750000    -0.750000
   36     1.000000   180.000000     0.707107     0.000000     0.707107     0.750000     0.750000    -0.750000
   37    -1.000000   120.000000     0.577350    -0.577350     0.577350     0.750000     0.750000    -0.750000
   38    -1.000000   120.000000    -0.577350    -0.577350     0.577350     0.750000     0.750000    -0.750000
   39    -1.000000   180.000000     1.000000     0.000000     0.000000     0.750000     0.750000    -0.750000
   40     1.000000    90.000000     0.000000    -1.000000     0.000000     0.750000     0.750000    -0.750000
   41     1.000000   180.000000     0.707107     0.707107     0.000000     0.750000     0.750000    -0.750000
   42     1.000000    90.000000     1.000000     0.000000     0.000000     0.750000     0.750000    -0.750000
   43    -1.000000   120.000000     0.577350    -0.577350    -0.577350     0.750000     0.750000    -0.750000
   44    -1.000000   180.000000     0.000000     1.000000     0.000000     0.750000     0.750000    -0.750000
   45    -1.000000   120.000000     0.577350     0.577350    -0.577350     0.750000     0.750000    -0.750000
   46     1.000000   180.000000     0.000000    -0.707107     0.707107     0.750000     0.750000    -0.750000
   47     1.000000   180.000000     0.707107    -0.707107     0.000000     0.750000     0.750000    -0.750000
   48     1.000000   180.000000     0.707107     0.000000    -0.707107     0.750000     0.750000    -0.750000
 
 Subroutine IBZKPT returns following result:
 ===========================================
 
 Found     56 irreducible k-points:
 
 Following reciprocal coordinates:
            Coordinates               Weight
  0.000000  0.000000  0.000000      1.000000
  0.090909  0.000000  0.000000      6.000000
  0.181818  0.000000  0.000000      6.000000
  0.272727  0.000000  0.000000      6.000000
  0.363636  0.000000  0.000000      6.000000
  0.454545  0.000000  0.000000      6.000000
  0.090909  0.090909  0.000000     12.000000
  0.181818  0.090909  0.000000     24.000000
  0.272727  0.090909  0.000000     24.000000
  0.363636  0.090909  0.000000     24.000000
  0.454545  0.090909  0.000000     24.000000
  0.181818  0.181818  0.000000     12.000000
  0.272727  0.181818  0.000000     24.000000
  0.363636  0.181818  0.000000     24.000000
  0.454545  0.181818  0.000000     24.000000
  0.272727  0.272727  0.000000     12.000000
  0.363636  0.272727  0.000000     24.000000
  0.454545  0.272727  0.000000     24.000000
  0.363636  0.363636  0.000000     12.000000
  0.454545  0.363636  0.000000     24.000000
  0.454545  0.454545  0.000000     12.000000
  0.090909  0.090909  0.090909      8.000000
  0.181818  0.090909  0.090909     24.000000
  0.272727  0.090909  0.090909     24.000000
  0.363636  0.090909  0.090909     24.000000
  0.454545  0.090909  0.090909     24.000000
  0.181818  0.181818  0.090909     24.000000
  0.272727  0.181818  0.090909     48.000000
  0.363636  0.181818  0.090909     48.000000
  0.454545  0.181818  0.090909     48.000000
  0.272727  0.272727  0.090909     24.000000
  0.363636  0.272727  0.090909     48.000000
  0.454545  0.272727  0.090909     48.000000
  0.363636  0.363636  0.090909     24.000000
  0.454545  0.363636  0.090909     48.000000
  0.454545  0.454545  0.090909     24.000000
  0.181818  0.181818  0.181818      8.000000
  0.272727  0.181818  0.181818     24.000000
  0.363636  0.181818  0.181818     24.000000
  0.454545  0.181818  0.181818     24.000000
  0.272727  0.272727  0.181818     24.000000
  0.363636  0.272727  0.181818     48.000000
  0.454545  0.272727  0.181818     48.000000
  0.363636  0.363636  0.181818     24.000000
  0.454545  0.363636  0.181818     48.000000
  0.454545  0.454545  0.181818     24.000000
  0.272727  0.272727  0.272727      8.000000
  0.363636  0.272727  0.272727     24.000000
  0.454545  0.272727  0.272727     24.000000
  0.363636  0.363636  0.272727     24.000000
  0.454545  0.363636  0.272727     48.000000
  0.454545  0.454545  0.272727     24.000000
  0.363636  0.363636  0.363636      8.000000
  0.454545  0.363636  0.363636     24.000000
  0.454545  0.454545  0.363636     24.000000
  0.454545  0.454545  0.454545      8.000000
 
 Following cartesian coordinates:
            Coordinates               Weight
  0.000000  0.000000  0.000000      1.000000
  0.090909  0.000000  0.000000      6.000000
  0.181818  0.000000  0.000000      6.000000
  0.272727  0.000000  0.000000      6.000000
  0.363636  0.000000  0.000000      6.000000
  0.454545  0.000000  0.000000      6.000000
  0.090909  0.090909  0.000000     12.000000
  0.181818  0.090909  0.000000     24.000000
  0.272727  0.090909  0.000000     24.000000
  0.363636  0.090909  0.000000     24.000000
  0.454545  0.090909  0.000000     24.000000
  0.181818  0.181818  0.000000     12.000000
  0.272727  0.181818  0.000000     24.000000
  0.363636  0.181818  0.000000     24.000000
  0.454545  0.181818  0.000000     24.000000
  0.272727  0.272727  0.000000     12.000000
  0.363636  0.272727  0.000000     24.000000
  0.454545  0.272727  0.000000     24.000000
  0.363636  0.363636  0.000000     12.000000
  0.454545  0.363636  0.000000     24.000000
  0.454545  0.454545  0.000000     12.000000
  0.090909  0.090909  0.090909      8.000000
  0.181818  0.090909  0.090909     24.000000
  0.272727  0.090909  0.090909     24.000000
  0.363636  0.090909  0.090909     24.000000
  0.454545  0.090909  0.090909     24.000000
  0.181818  0.181818  0.090909     24.000000
  0.272727  0.181818  0.090909     48.000000
  0.363636  0.181818  0.090909     48.000000
  0.454545  0.181818  0.090909     48.000000
  0.272727  0.272727  0.090909     24.000000
  0.363636  0.272727  0.090909     48.000000
  0.454545  0.272727  0.090909     48.000000
  0.363636  0.363636  0.090909     24.000000
  0.454545  0.363636  0.090909     48.000000
  0.454545  0.454545  0.090909     24.000000
  0.181818  0.181818  0.181818      8.000000
  0.272727  0.181818  0.181818     24.000000
  0.363636  0.181818  0.181818     24.000000
  0.454545  0.181818  0.181818     24.000000
  0.272727  0.272727  0.181818     24.000000
  0.363636  0.272727  0.181818     48.000000
  0.454545  0.272727  0.181818     48.000000
  0.363636  0.363636  0.181818     24.000000
  0.454545  0.363636  0.181818     48.000000
  0.454545  0.454545  0.181818     24.000000
  0.272727  0.272727  0.272727      8.000000
  0.363636  0.272727  0.272727     24.000000
  0.454545  0.272727  0.272727     24.000000
  0.363636  0.363636  0.272727     24.000000
  0.454545  0.363636  0.272727     48.000000
  0.454545  0.454545  0.272727     24.000000
  0.363636  0.363636  0.363636      8.000000
  0.454545  0.363636  0.363636     24.000000
  0.454545  0.454545  0.363636     24.000000
  0.454545  0.454545  0.454545      8.000000
 


--------------------------------------------------------------------------------------------------------




 Dimension of arrays:
   k-points           NKPTS =     56   k-points in BZ     NKDIM =     56   number of bands    NBANDS=     25
   number of dos      NEDOS =    301   number of ions     NIONS =      8
   non local maximal  LDIM  =      4   non local SUM 2l+1 LMDIM =      8
   total plane-waves  NPLWV = 157464
   max r-space proj   IRMAX =      1   max aug-charges    IRDMAX=  33061
   dimension x,y,z NGX =    54 NGY =   54 NGZ =   54
   dimension x,y,z NGXF=   108 NGYF=  108 NGZF=  108
   support grid    NGXF=   108 NGYF=  108 NGZF=  108
   ions per type =               8
 NGX,Y,Z   is equivalent  to a cutoff of  16.53, 16.53, 16.53 a.u.
 NGXF,Y,Z  is equivalent  to a cutoff of  33.06, 33.06, 33.06 a.u.


 I would recommend the setting:
   dimension x,y,z NGX =    53 NGY =   53 NGZ =   53
 SYSTEM =  diamond Si                              
 POSCAR =  Si dia                                  

 Startparameter for this run:
   NWRITE =      2    write-flag & timer
   PREC   = accura    normal or accurate (medium, high low for compatibility)
   ISTART =      0    job   : 0-new  1-cont  2-samecut
   ICHARG =      2    charge: 1-file 2-atom 10-const
   ISPIN  =      1    spin polarized calculation?
   LNONCOLLINEAR =      F non collinear calculations
   LSORBIT =      F    spin-orbit coupling
   INIWAV =      1    electr: 0-lowe 1-rand  2-diag
   LASPH  =      F    aspherical Exc in radial PAW
   METAGGA=      F    non-selfconsistent MetaGGA calc.

 Electronic Relaxation 1
   ENCUT  =  900.0 eV  66.15 Ry    8.13 a.u.  13.28 13.28 13.28*2*pi/ulx,y,z
   ENINI  =  900.0     initial cutoff
   ENAUG  =  322.1 eV  augmentation charge cutoff
   NELM   =     60;   NELMIN=  0; NELMDL=  3     # of ELM steps 
   EDIFF  = 0.1E-03   stopping-criterion for ELM
   LREAL  =      F    real-space projection
   NLSPLINE    = F    spline interpolate recip. space projectors
   LCOMPAT=      F    compatible to vasp.4.4
   GGA_COMPAT  = T    GGA compatible to vasp.4.4-vasp.4.6
   LMAXPAW     = -100 max onsite density
   LMAXMIX     =    2 max onsite mixed and CHGCAR
   VOSKOWN=      0    Vosko Wilk Nusair interpolation
   ROPT   =    0.00000
 Ionic relaxation
   EDIFFG = -.1E-01   stopping-criterion for IOM
   NSW    =      9    number of steps for IOM
   NBLOCK =      1;   KBLOCK =      9    inner block; outer block 
   IBRION =      2    ionic relax: 0-MD 1-quasi-New 2-CG
   NFREE  =      1    steps in history (QN), initial steepest desc. (CG)
   ISIF   =      3    stress and relaxation
   IWAVPR =     11    prediction:  0-non 1-charg 2-wave 3-comb
   ISYM   =      2    0-nonsym 1-usesym 2-fastsym
   LCORR  =      T    Harris-Foulkes like correction to forces

   POTIM  = 1.0000    time-step for ionic-motion
   TEIN   =    0.0    initial temperature
   TEBEG  =    0.0;   TEEND  =   0.0 temperature during run
   SMASS  =  -3.00    Nose mass-parameter (am)
   estimated Nose-frequenzy (Omega)   =  0.10E-29 period in steps =****** mass=  -0.674E-27a.u.
   SCALEE = 1.0000    scale energy and forces
   NPACO  =    256;   APACO  = 16.0  distance and # of slots for P.C.
   PSTRESS=    0.0 pullay stress

  Mass of Ions in am
   POMASS =  28.09
  Ionic Valenz
   ZVAL   =   4.00
  Atomic Wigner-Seitz radii
   RWIGS  =  -1.00
  virtual crystal weights 
   VCA    =   1.00
   NELECT =      32.0000    total number of electrons
   NUPDOWN=      -1.0000    fix difference up-down

 DOS related values:
   EMIN   =  10.00;   EMAX   =-10.00  energy-range for DOS
   EFERMI =   0.00
   ISMEAR =     0;   SIGMA  =   0.10  broadening in eV -4-tet -1-fermi 0-gaus

 Electronic relaxation 2 (details)
   IALGO  =     38    algorithm
   LDIAG  =      T    sub-space diagonalisation (order eigenvalues)
   LSUBROT=      F    optimize rotation matrix (better conditioning)
   TURBO    =      0    0=normal 1=particle mesh
   IRESTART =      0    0=no restart 2=restart with 2 vectors
   NREBOOT  =      0    no. of reboots
   NMIN     =      0    reboot dimension
   EREF     =   0.00    reference energy to select bands
   IMIX   =      4    mixing-type and parameters
     AMIX     =   0.40;   BMIX     =  1.00
     AMIX_MAG =   1.60;   BMIX_MAG =  1.00
     AMIN     =   0.10
     WC   =   100.;   INIMIX=   1;  MIXPRE=   1;  MAXMIX= -45

 Intra band minimization:
   WEIMIN = 0.0010     energy-eigenvalue tresh-hold
   EBREAK =  0.10E-05  absolut break condition
   DEPER  =   0.30     relativ break condition  

   TIME   =   0.40     timestep for ELM

  volume/ion in A,a.u.               =      20.02       135.13
  Fermi-wavevector in a.u.,A,eV,Ry     =   0.956999  1.808467 12.460868  0.915848
  Thomas-Fermi vector in A             =   2.085978
 
 Write flags
   LWAVE  =      T    write WAVECAR
   LCHARG =      T    write CHGCAR
   LVTOT  =      F    write LOCPOT, total local potential
   LVHAR  =      F    write LOCPOT, Hartree potential only
   LELF   =      F    write electronic localiz. function (ELF)
   LORBIT =      0    0 simple, 1 ext, 2 COOP (PROOUT)


 Dipole corrections
   LMONO  =      F    monopole corrections only (constant potential shift)
   LDIPOL =      F    correct potential (dipole corrections)
   IDIPOL =      0    1-x, 2-y, 3-z, 4-all directions 
   EPSILON=  1.0000000 bulk dielectric constant

 Exchange correlation treatment:
   GGA     =    --    GGA type
   LEXCH   =     8    internal setting for exchange type
   VOSKOWN=      0    Vosko Wilk Nusair interpolation
   LHFCALC =     F    Hartree Fock is set to
   LHFONE  =     F    Hartree Fock one center treatment
   AEXX    =    0.0000 exact exchange contribution

 Linear response parameters
   LEPSILON=     F    determine dielectric tensor
   LRPA    =     F    only Hartree local field effects (RPA)
   LNABLA  =     F    use nabla operator in PAW spheres
   LVEL    =     F    velocity operator in full k-point grid
   LINTERFAST=   F  fast interpolation
   KINTER  =     0    interpolate to denser k-point grid
   CSHIFT  =0.1000    complex shift for real part using Kramers Kronig
   OMEGAMAX=  -1.0    maximum frequency
   DEG_THRESHOLD= 0.2000000E-02 threshold for treating states as degnerate
   RTIME   =    0.100 relaxation time in fs

 Orbital magnetization related:
   ORBITALMAG=     F  switch on orbital magnetization
   LCHIMAG   =     F  perturbation theory with respect to B field
   DQ        =  0.001000  dq finite difference perturbation B field



--------------------------------------------------------------------------------------------------------


 conjugate gradient relaxation of ions
 charge density and potential will be updated during run
 non-spin polarized calculation
 Variant of blocked Davidson
 Davidson routine will perform the subspace rotation
 perform sub-space diagonalisation
    after iterative eigenvector-optimisation
 modified Broyden-mixing scheme, WC =      100.0
 initial mixing is a Kerker type mixing with AMIX =  0.4000 and BMIX =      1.0000
 Hartree-type preconditioning will be used
 using additional bands            9
 reciprocal scheme for non local part
 use partial core corrections
 calculate Harris-corrections to forces 
   (improved forces if not selfconsistent)
 use gradient corrections 
 use of overlap-Matrix (Vanderbilt PP)
 Gauss-broadening in eV      SIGMA  =   0.10


--------------------------------------------------------------------------------------------------------


  energy-cutoff  :      900.00
  volume of cell :      160.19
      direct lattice vectors                 reciprocal lattice vectors
     5.431000000  0.000000000  0.000000000     0.184128153  0.000000000  0.000000000
     0.000000000  5.431000000  0.000000000     0.000000000  0.184128153  0.000000000
     0.000000000  0.000000000  5.431000000     0.000000000  0.000000000  0.184128153

  length of vectors
     5.431000000  5.431000000  5.431000000     0.184128153  0.184128153  0.184128153


 
 k-points in units of 2pi/SCALE and weight: k-points                                
   0.00000000  0.00000000  0.00000000       0.001
   0.09090909  0.00000000  0.00000000       0.005
   0.18181818  0.00000000  0.00000000       0.005
   0.27272727  0.00000000  0.00000000       0.005
   0.36363636  0.00000000  0.00000000       0.005
   0.45454545  0.00000000  0.00000000       0.005
   0.09090909  0.09090909  0.00000000       0.009
   0.18181818  0.09090909  0.00000000       0.018
   0.27272727  0.09090909  0.00000000       0.018
   0.36363636  0.09090909  0.00000000       0.018
   0.45454545  0.09090909  0.00000000       0.018
   0.18181818  0.18181818  0.00000000       0.009
   0.27272727  0.18181818  0.00000000       0.018
   0.36363636  0.18181818  0.00000000       0.018
   0.45454545  0.18181818  0.00000000       0.018
   0.27272727  0.27272727  0.00000000       0.009
   0.36363636  0.27272727  0.00000000       0.018
   0.45454545  0.27272727  0.00000000       0.018
   0.36363636  0.36363636  0.00000000       0.009
   0.45454545  0.36363636  0.00000000       0.018
   0.45454545  0.45454545  0.00000000       0.009
   0.09090909  0.09090909  0.09090909       0.006
   0.18181818  0.09090909  0.09090909       0.018
   0.27272727  0.09090909  0.09090909       0.018
   0.36363636  0.09090909  0.09090909       0.018
   0.45454545  0.09090909  0.09090909       0.018
   0.18181818  0.18181818  0.09090909       0.018
   0.27272727  0.18181818  0.09090909       0.036
   0.36363636  0.18181818  0.09090909       0.036
   0.45454545  0.18181818  0.09090909       0.036
   0.27272727  0.27272727  0.09090909       0.018
   0.36363636  0.27272727  0.09090909       0.036
   0.45454545  0.27272727  0.09090909       0.036
   0.36363636  0.36363636  0.09090909       0.018
   0.45454545  0.36363636  0.09090909       0.036
   0.45454545  0.45454545  0.09090909       0.018
   0.18181818  0.18181818  0.18181818       0.006
   0.27272727  0.18181818  0.18181818       0.018
   0.36363636  0.18181818  0.18181818       0.018
   0.45454545  0.18181818  0.18181818       0.018
   0.27272727  0.27272727  0.18181818       0.018
   0.36363636  0.27272727  0.18181818       0.036
   0.45454545  0.27272727  0.18181818       0.036
   0.36363636  0.36363636  0.18181818       0.018
   0.45454545  0.36363636  0.18181818       0.036
   0.45454545  0.45454545  0.18181818       0.018
   0.27272727  0.27272727  0.27272727       0.006
   0.36363636  0.27272727  0.27272727       0.018
   0.45454545  0.27272727  0.27272727       0.018
   0.36363636  0.36363636  0.27272727       0.018
   0.45454545  0.36363636  0.27272727       0.036
   0.45454545  0.45454545  0.27272727       0.018
   0.36363636  0.36363636  0.36363636       0.006
   0.45454545  0.36363636  0.36363636       0.018
   0.45454545  0.45454545  0.36363636       0.018
   0.45454545  0.45454545  0.45454545       0.006
 
 k-points in reciprocal lattice and weights: k-points                                
   0.00000000  0.00000000  0.00000000       0.001
   0.09090909  0.00000000  0.00000000       0.005
   0.18181818  0.00000000  0.00000000       0.005
   0.27272727  0.00000000  0.00000000       0.005
   0.36363636  0.00000000  0.00000000       0.005
   0.45454545  0.00000000  0.00000000       0.005
   0.09090909  0.09090909  0.00000000       0.009
   0.18181818  0.09090909  0.00000000       0.018
   0.27272727  0.09090909  0.00000000       0.018
   0.36363636  0.09090909  0.00000000       0.018
   0.45454545  0.09090909  0.00000000       0.018
   0.18181818  0.18181818  0.00000000       0.009
   0.27272727  0.18181818  0.00000000       0.018
   0.36363636  0.18181818  0.00000000       0.018
   0.45454545  0.18181818  0.00000000       0.018
   0.27272727  0.27272727  0.00000000       0.009
   0.36363636  0.27272727  0.00000000       0.018
   0.45454545  0.27272727  0.00000000       0.018
   0.36363636  0.36363636  0.00000000       0.009
   0.45454545  0.36363636  0.00000000       0.018
   0.45454545  0.45454545  0.00000000       0.009
   0.09090909  0.09090909  0.09090909       0.006
   0.18181818  0.09090909  0.09090909       0.018
   0.27272727  0.09090909  0.09090909       0.018
   0.36363636  0.09090909  0.09090909       0.018
   0.45454545  0.09090909  0.09090909       0.018
   0.18181818  0.18181818  0.09090909       0.018
   0.27272727  0.18181818  0.09090909       0.036
   0.36363636  0.18181818  0.09090909       0.036
   0.45454545  0.18181818  0.09090909       0.036
   0.27272727  0.27272727  0.09090909       0.018
   0.36363636  0.27272727  0.09090909       0.036
   0.45454545  0.27272727  0.09090909       0.036
   0.36363636  0.36363636  0.09090909       0.018
   0.45454545  0.36363636  0.09090909       0.036
   0.45454545  0.45454545  0.09090909       0.018
   0.18181818  0.18181818  0.18181818       0.006
   0.27272727  0.18181818  0.18181818       0.018
   0.36363636  0.18181818  0.18181818       0.018
   0.45454545  0.18181818  0.18181818       0.018
   0.27272727  0.27272727  0.18181818       0.018
   0.36363636  0.27272727  0.18181818       0.036
   0.45454545  0.27272727  0.18181818       0.036
   0.36363636  0.36363636  0.18181818       0.018
   0.45454545  0.36363636  0.18181818       0.036
   0.45454545  0.45454545  0.18181818       0.018
   0.27272727  0.27272727  0.27272727       0.006
   0.36363636  0.27272727  0.27272727       0.018
   0.45454545  0.27272727  0.27272727       0.018
   0.36363636  0.36363636  0.27272727       0.018
   0.45454545  0.36363636  0.27272727       0.036
   0.45454545  0.45454545  0.27272727       0.018
   0.36363636  0.36363636  0.36363636       0.006
   0.45454545  0.36363636  0.36363636       0.018
   0.45454545  0.45454545  0.36363636       0.018
   0.45454545  0.45454545  0.45454545       0.006
 
 position of ions in fractional coordinates (direct lattice) 
   0.00000000  0.00000000  0.00000000
   0.00000000  0.50000000  0.50000000
   0.50000000  0.00000000  0.50000000
   0.50000000  0.50000000  0.00000000
   0.25000000  0.25000000  0.25000000
   0.75000000  0.75000000  0.25000000
   0.75000000  0.25000000  0.75000000
   0.25000000  0.75000000  0.75000000
 
 position of ions in cartesian coordinates  (Angst):
   0.00000000  0.00000000  0.00000000
   0.00000000  2.71550000  2.71550000
   2.71550000  0.00000000  2.71550000
   2.71550000  2.71550000  0.00000000
   1.35775000  1.35775000  1.35775000
   4.07325000  4.07325000  1.35775000
   4.07325000  1.35775000  4.07325000
   1.35775000  4.07325000  4.07325000
 


--------------------------------------------------------------------------------------------------------


 k-point  1 :   0.0000 0.0000 0.0000  plane waves:    9795
 k-point  2 :   0.0909 0.0000 0.0000  plane waves:    9819
 k-point  3 :   0.1818 0.0000 0.0000  plane waves:    9815
 k-point  4 :   0.2727 0.0000 0.0000  plane waves:    9831
 k-point  5 :   0.3636 0.0000 0.0000  plane waves:    9822
 k-point  6 :   0.4545 0.0000 0.0000  plane waves:    9866
 k-point  7 :   0.0909 0.0909 0.0000  plane waves:    9829
 k-point  8 :   0.1818 0.0909 0.0000  plane waves:    9816
 k-point  9 :   0.2727 0.0909 0.0000  plane waves:    9832
 k-point 10 :   0.3636 0.0909 0.0000  plane waves:    9815
 k-point 11 :   0.4545 0.0909 0.0000  plane waves:    9838
 k-point 12 :   0.1818 0.1818 0.0000  plane waves:    9829
 k-point 13 :   0.2727 0.1818 0.0000  plane waves:    9816
 k-point 14 :   0.3636 0.1818 0.0000  plane waves:    9827
 k-point 15 :   0.4545 0.1818 0.0000  plane waves:    9837
 k-point 16 :   0.2727 0.2727 0.0000  plane waves:    9803
 k-point 17 :   0.3636 0.2727 0.0000  plane waves:    9831
 k-point 18 :   0.4545 0.2727 0.0000  plane waves:    9832
 k-point 19 :   0.3636 0.3636 0.0000  plane waves:    9837
 k-point 20 :   0.4545 0.3636 0.0000  plane waves:    9823
 k-point 21 :   0.4545 0.4545 0.0000  plane waves:    9810
 k-point 22 :   0.0909 0.0909 0.0909  plane waves:    9834
 k-point 23 :   0.1818 0.0909 0.0909  plane waves:    9821
 k-point 24 :   0.2727 0.0909 0.0909  plane waves:    9813
 k-point 25 :   0.3636 0.0909 0.0909  plane waves:    9810
 k-point 26 :   0.4545 0.0909 0.0909  plane waves:    9839
 k-point 27 :   0.1818 0.1818 0.0909  plane waves:    9825
 k-point 28 :   0.2727 0.1818 0.0909  plane waves:    9821
 k-point 29 :   0.3636 0.1818 0.0909  plane waves:    9837
 k-point 30 :   0.4545 0.1818 0.0909  plane waves:    9837
 k-point 31 :   0.2727 0.2727 0.0909  plane waves:    9818
 k-point 32 :   0.3636 0.2727 0.0909  plane waves:    9812
 k-point 33 :   0.4545 0.2727 0.0909  plane waves:    9831
 k-point 34 :   0.3636 0.3636 0.0909  plane waves:    9806
 k-point 35 :   0.4545 0.3636 0.0909  plane waves:    9826
 k-point 36 :   0.4545 0.4545 0.0909  plane waves:    9808
 k-point 37 :   0.1818 0.1818 0.1818  plane waves:    9807
 k-point 38 :   0.2727 0.1818 0.1818  plane waves:    9811
 k-point 39 :   0.3636 0.1818 0.1818  plane waves:    9825
 k-point 40 :   0.4545 0.1818 0.1818  plane waves:    9822
 k-point 41 :   0.2727 0.2727 0.1818  plane waves:    9809
 k-point 42 :   0.3636 0.2727 0.1818  plane waves:    9816
 k-point 43 :   0.4545 0.2727 0.1818  plane waves:    9813
 k-point 44 :   0.3636 0.3636 0.1818  plane waves:    9829
 k-point 45 :   0.4545 0.3636 0.1818  plane waves:    9810
 k-point 46 :   0.4545 0.4545 0.1818  plane waves:    9825
 k-point 47 :   0.2727 0.2727 0.2727  plane waves:    9816
 k-point 48 :   0.3636 0.2727 0.2727  plane waves:    9825
 k-point 49 :   0.4545 0.2727 0.2727  plane waves:    9826
 k-point 50 :   0.3636 0.3636 0.2727  plane waves:    9831
 k-point 51 :   0.4545 0.3636 0.2727  plane waves:    9808
 k-point 52 :   0.4545 0.4545 0.2727  plane waves:    9802
 k-point 53 :   0.3636 0.3636 0.3636  plane waves:    9814
 k-point 54 :   0.4545 0.3636 0.3636  plane waves:    9818
 k-point 55 :   0.4545 0.4545 0.3636  plane waves:    9819
 k-point 56 :   0.4545 0.4545 0.4545  plane waves:    9862

 maximum and minimum number of plane-waves per node :      1245     1199

 maximum number of plane-waves:      9866
 maximum index in each direction: 
   IXMAX=   13   IYMAX=   13   IZMAX=   13
   IXMIN=  -13   IYMIN=  -13   IZMIN=  -13

 NGX is ok and might be reduce to  54
 NGY is ok and might be reduce to  54
 NGZ is ok and might be reduce to  54

 total amount of memory used by VASP on root node    44239. kBytes
========================================================================

   base      :      30000. kBytes
   nonl-proj :       4621. kBytes
   fftplans  :       1665. kBytes
   grid      :       2328. kBytes
   one-center:          3. kBytes
   wavefun   :       5622. kBytes
 
     INWAV:  cpu time    0.0000: real time    0.0001
 Broyden mixing: mesh for mixing (old mesh)
   NGX = 27   NGY = 27   NGZ = 27
  (NGX  =108   NGY  =108   NGZ  =108)
  gives a total of  19683 points

 initial charge density was supplied:
 charge density of overlapping atoms calculated
 number of electron      32.0000000 magnetization 
 keeping initial charge density in first step


--------------------------------------------------------------------------------------------------------


 Maximum index for augmentation-charges          812 (set IRDMAX)


--------------------------------------------------------------------------------------------------------


 First call to EWALD:  gamma=   0.326
 Maximum number of real-space cells 3x 3x 3
 Maximum number of reciprocal cells 3x 3x 3

 FEWALD executed in parallel
    FEWALD:  cpu time    0.0020: real time    0.0020


----------------------------------------- Iteration    1(   1)  ---------------------------------------


    POTLOK:  cpu time    0.0219: real time    0.0254
    SETDIJ:  cpu time    0.0024: real time    0.0024
     EDDAV:  cpu time    1.7710: real time    1.8299
       DOS:  cpu time    0.0014: real time    0.0014
    --------------------------------------------
      LOOP:  cpu time    1.7981: real time    1.8618

 eigenvalue-minimisations  :  2800
 total energy-change (2. order) : 0.9767278E+02  (-0.1714624E+04)
 number of electron      32.0000000 magnetization 
 augmentation part       32.0000000 magnetization 

 Free energy of the ion-electron system (eV)
  ---------------------------------------------------
  alpha Z        PSCENC =        13.44915721
  Ewald energy   TEWEN  =      -914.08579262
  -Hartree energ DENC   =       -44.03749844
  -exchange      EXHF   =         0.00000000
  -V(xc)+E(xc)   XCENC  =       -74.41615972
  PAW double counting   =       704.99039692     -564.24414232
  entropy T*S    EENTRO =        -0.00980759
  eigenvalues    EBANDS =       151.49241628
  atomic energy  EATOM  =       824.53421073
  Solvation  Ediel_sol  =         0.00000000
  ---------------------------------------------------
  free energy    TOTEN  =        97.67278045 eV

  energy without entropy =       97.68258804  energy(sigma->0) =       97.67768425


--------------------------------------------------------------------------------------------------------




----------------------------------------- Iteration    1(   2)  ---------------------------------------


     EDDAV:  cpu time    1.8627: real time    1.8772
       DOS:  cpu time    0.0010: real time    0.0010
    --------------------------------------------
      LOOP:  cpu time    1.8643: real time    1.8850

 eigenvalue-minimisations  :  3625
 total energy-change (2. order) :-0.1351336E+03  (-0.1302626E+03)
 number of electron      32.0000000 magnetization 
 augmentation part       32.0000000 magnetization 

 Free energy of the ion-electron system (eV)
  ---------------------------------------------------
  alpha Z        PSCENC =        13.44915721
  Ewald energy   TEWEN  =      -914.08579262
  -Hartree energ DENC   =       -44.03749844
  -exchange      EXHF   =         0.00000000
  -V(xc)+E(xc)   XCENC  =       -74.41615972
  PAW double counting   =       704.99039692     -564.24414232
  entropy T*S    EENTRO =        -0.00001497
  eigenvalues    EBANDS =        16.34902024
  atomic energy  EATOM  =       824.53421073
  Solvation  Ediel_sol  =         0.00000000
  ---------------------------------------------------
  free energy    TOTEN  =       -37.46082297 eV

  energy without entropy =      -37.46080800  energy(sigma->0) =      -37.46081548


--------------------------------------------------------------------------------------------------------




----------------------------------------- Iteration    1(   3)  ---------------------------------------


     EDDAV:  cpu time    1.8447: real time    1.9005
       DOS:  cpu time    0.0008: real time    0.0008
    CHARGE:  cpu time    0.1218: real time    0.1325
    MIXING:  cpu time    0.0017: real time    0.0019
    --------------------------------------------
      LOOP:  cpu time    1.9694: real time    2.0566

 eigenvalue-minimisations  :  3645
 total energy-change (2. order) :-0.6550279E+01  (-0.6493025E+01)
 number of electron      32.0000002 magnetization 
 augmentation part       -1.8735458 magnetization 

 Broyden mixing:
  rms(total) = 0.10587E+01    rms(broyden)= 0.10587E+01
  rms(prec ) = 0.14089E+01
  weight for this iteration     100.00

 Free energy of the ion-electron system (eV)
  ---------------------------------------------------
  alpha Z        PSCENC =        13.44915721
  Ewald energy   TEWEN  =      -914.08579262
  -Hartree energ DENC   =       -44.03749844
  -exchange      EXHF   =         0.00000000
  -V(xc)+E(xc)   XCENC  =       -74.41615972
  PAW double counting   =       704.99039692     -564.24414232
  entropy T*S    EENTRO =        -0.00000000
  eigenvalues    EBANDS =         9.79872657
  atomic energy  EATOM  =       824.53421073
  Solvation  Ediel_sol  =         0.00000000
  ---------------------------------------------------
  free energy    TOTEN  =       -44.01110167 eV

  energy without entropy =      -44.01110167  energy(sigma->0) =      -44.01110167


--------------------------------------------------------------------------------------------------------




----------------------------------------- Iteration    1(   4)  ---------------------------------------


    POTLOK:  cpu time    0.0175: real time    0.0196
    SETDIJ:  cpu time    0.0044: real time    0.0047
     EDDAV:  cpu time    1.9418: real time    2.0350
       DOS:  cpu time    0.0009: real time    0.0009
    CHARGE:  cpu time    0.1104: real time    0.1107
    MIXING:  cpu time    0.0013: real time    0.0014
    --------------------------------------------
      LOOP:  cpu time    2.0768: real time    2.1764

 eigenvalue-minimisations  :  3665
 total energy-change (2. order) : 0.4026100E+00  (-0.9824473E-01)
 number of electron      32.0000002 magnetization 
 augmentation part       -1.8594388 magnetization 

 Broyden mixing:
  rms(total) = 0.57401E+00    rms(broyden)= 0.57401E+00
  rms(prec ) = 0.80292E+00
  weight for this iteration     100.00

 eigenvalues of (default mixing * dielectric matrix)
  average eigenvalue GAMMA=   2.1273
  2.1273

 Free energy of the ion-electron system (eV)
  ---------------------------------------------------
  alpha Z        PSCENC =        13.44915721
  Ewald energy   TEWEN  =      -914.08579262
  -Hartree energ DENC   =       -49.88074070
  -exchange      EXHF   =         0.00000000
  -V(xc)+E(xc)   XCENC  =       -73.47738139
  PAW double counting   =      1639.25522633    -1498.94442734
  entropy T*S    EENTRO =        -0.00000000
  eigenvalues    EBANDS =        15.54125612
  atomic energy  EATOM  =       824.53421073
  Solvation  Ediel_sol  =         0.00000000
  ---------------------------------------------------
  free energy    TOTEN  =       -43.60849166 eV

  energy without entropy =      -43.60849166  energy(sigma->0) =      -43.60849166


--------------------------------------------------------------------------------------------------------




----------------------------------------- Iteration    1(   5)  ---------------------------------------


    POTLOK:  cpu time    0.0174: real time    0.0187
    SETDIJ:  cpu time    0.0029: real time    0.0029
     EDDAV:  cpu time    1.7257: real time    1.7306
       DOS:  cpu time    0.0010: real time    0.0010
    CHARGE:  cpu time    0.1101: real time    0.1104
    MIXING:  cpu time    0.0011: real time    0.0011
    --------------------------------------------
      LOOP:  cpu time    1.8587: real time    1.8684

 eigenvalue-minimisations  :  3380
 total energy-change (2. order) : 0.2363922E+00  (-0.4427966E-01)
 number of electron      32.0000002 magnetization 
 augmentation part       -1.8334705 magnetization 

 Broyden mixing:
  rms(total) = 0.59338E-01    rms(broyden)= 0.59338E-01
  rms(prec ) = 0.80638E-01
  weight for this iteration     100.00

 eigenvalues of (default mixing * dielectric matrix)
  average eigenvalue GAMMA=   1.7427
  0.9980  2.4874

 Free energy of the ion-electron system (eV)
  ---------------------------------------------------
  alpha Z        PSCENC =        13.44915721
  Ewald energy   TEWEN  =      -914.08579262
  -Hartree energ DENC   =       -58.99882569
  -exchange      EXHF   =         0.00000000
  -V(xc)+E(xc)   XCENC  =       -72.02178556
  PAW double counting   =      3357.06590860    -3217.29056294
  entropy T*S    EENTRO =        -0.00000020
  eigenvalues    EBANDS =        23.97559096
  atomic energy  EATOM  =       824.53421073
  Solvation  Ediel_sol  =         0.00000000
  ---------------------------------------------------
  free energy    TOTEN  =       -43.37209951 eV

  energy without entropy =      -43.37209931  energy(sigma->0) =      -43.37209941


--------------------------------------------------------------------------------------------------------




----------------------------------------- Iteration    1(   6)  ---------------------------------------


    POTLOK:  cpu time    0.0171: real time    0.0172
    SETDIJ:  cpu time    0.0019: real time    0.0019
     EDDAV:  cpu time    1.8399: real time    1.8457
       DOS:  cpu time    0.0010: real time    0.0010
    CHARGE:  cpu time    0.1102: real time    0.1105
    MIXING:  cpu time    0.0011: real time    0.0011
    --------------------------------------------
      LOOP:  cpu time    1.9717: real time    1.9807

 eigenvalue-minimisations  :  3725
 total energy-change (2. order) :-0.5873979E-02  (-0.1978739E-02)
 number of electron      32.0000002 magnetization 
 augmentation part       -1.8331454 magnetization 

 Broyden mixing:
  rms(total) = 0.24145E-01    rms(broyden)= 0.24145E-01
  rms(prec ) = 0.35892E-01
  weight for this iteration     100.00

 eigenvalues of (default mixing * dielectric matrix)
  average eigenvalue GAMMA=   2.0408
  0.9128  2.6968  2.5129

 Free energy of the ion-electron system (eV)
  ---------------------------------------------------
  alpha Z        PSCENC =        13.44915721
  Ewald energy   TEWEN  =      -914.08579262
  -Hartree energ DENC   =       -59.66065398
  -exchange      EXHF   =         0.00000000
  -V(xc)+E(xc)   XCENC  =       -71.89488864
  PAW double counting   =      3531.97193511    -3392.18718321
  entropy T*S    EENTRO =        -0.00000021
  eigenvalues    EBANDS =        24.49524212
  atomic energy  EATOM  =       824.53421073
  Solvation  Ediel_sol  =         0.00000000
  ---------------------------------------------------
  free energy    TOTEN  =       -43.37797349 eV

  energy without entropy =      -43.37797328  energy(sigma->0) =      -43.37797338


--------------------------------------------------------------------------------------------------------




----------------------------------------- Iteration    1(   7)  ---------------------------------------


    POTLOK:  cpu time    0.0172: real time    0.0173
    SETDIJ:  cpu time    0.0029: real time    0.0029
     EDDAV:  cpu time    1.7534: real time    1.8707
       DOS:  cpu time    0.0010: real time    0.0010
    CHARGE:  cpu time    0.1116: real time    0.1118
    MIXING:  cpu time    0.0011: real time    0.0011
    --------------------------------------------
      LOOP:  cpu time    1.8877: real time    2.0085

 eigenvalue-minimisations  :  3135
 total energy-change (2. order) :-0.2486586E-02  (-0.5066768E-03)
 number of electron      32.0000002 magnetization 
 augmentation part       -1.8357844 magnetization 

 Broyden mixing:
  rms(total) = 0.92090E-02    rms(broyden)= 0.92090E-02
  rms(prec ) = 0.11706E-01
  weight for this iteration     100.00

 eigenvalues of (default mixing * dielectric matrix)
  average eigenvalue GAMMA=   1.7476
  2.6316  2.3785  0.9902  0.9902

 Free energy of the ion-electron system (eV)
  ---------------------------------------------------
  alpha Z        PSCENC =        13.44915721
  Ewald energy   TEWEN  =      -914.08579262
  -Hartree energ DENC   =       -59.52230055
  -exchange      EXHF   =         0.00000000
  -V(xc)+E(xc)   XCENC  =       -71.88550708
  PAW double counting   =      3503.58274103    -3363.71670946
  entropy T*S    EENTRO =        -0.00000012
  eigenvalues    EBANDS =        24.26374079
  atomic energy  EATOM  =       824.53421073
  Solvation  Ediel_sol  =         0.00000000
  ---------------------------------------------------
  free energy    TOTEN  =       -43.38046008 eV

  energy without entropy =      -43.38045995  energy(sigma->0) =      -43.38046001


--------------------------------------------------------------------------------------------------------




----------------------------------------- Iteration    1(   8)  ---------------------------------------


    POTLOK:  cpu time    0.0172: real time    0.0185
    SETDIJ:  cpu time    0.0029: real time    0.0029
     EDDAV:  cpu time    1.6301: real time    1.6344
       DOS:  cpu time    0.0010: real time    0.0010
    --------------------------------------------
      LOOP:  cpu time    1.6516: real time    1.6609

 eigenvalue-minimisations  :  3125
 total energy-change (2. order) : 0.4998178E-05  (-0.1497820E-04)
 number of electron      32.0000002 magnetization 
 augmentation part       -1.8357844 magnetization 

 Free energy of the ion-electron system (eV)
  ---------------------------------------------------
  alpha Z        PSCENC =        13.44915721
  Ewald energy   TEWEN  =      -914.08579262
  -Hartree energ DENC   =       -59.63945679
  -exchange      EXHF   =         0.00000000
  -V(xc)+E(xc)   XCENC  =       -71.87167405
  PAW double counting   =      3499.88621494    -3360.03159795
  entropy T*S    EENTRO =        -0.00000013
  eigenvalues    EBANDS =        24.37848358
  atomic energy  EATOM  =       824.53421073
  Solvation  Ediel_sol  =         0.00000000
  ---------------------------------------------------
  free energy    TOTEN  =       -43.38045508 eV

  energy without entropy =      -43.38045495  energy(sigma->0) =      -43.38045501


--------------------------------------------------------------------------------------------------------




 average (electrostatic) potential at core
  the test charge radii are     0.9892
  (the norm of the test charge is              1.0000)
       1 -83.2564       2 -83.2564       3 -83.2564       4 -83.2564       5 -83.2564
       6 -83.2564       7 -83.2564       8 -83.2564
 
 
 
 E-fermi :   6.1055     XC(G=0):  -9.4111     alpha+bet :-11.9779


 k-point     1 :       0.0000    0.0000    0.0000
  band No.  band energies     occupation 
      1      -6.1339      2.00000
      2      -1.9901      2.00000
      3      -1.9901      2.00000
      4      -1.9901      2.00000
      5      -1.9901      2.00000
      6      -1.9901      2.00000
      7      -1.9901      2.00000
      8       2.9743      2.00000
      9       2.9743      2.00000
     10       2.9743      2.00000
     11       2.9743      2.00000
     12       2.9743      2.00000
     13       2.9743      2.00000
     14       5.8221      1.99994
     15       5.8221      1.99994
     16       5.8221      1.99994
     17       6.5327      0.00000
     18       6.5327      0.00000
     19       6.5327      0.00000
     20       6.5327      0.00000
     21       6.5327      0.00000
     22       6.5327      0.00000
     23       8.3890      0.00000
     24       8.3890      0.00000
     25       8.3890      0.00000

 k-point     2 :       0.0909    0.0000    0.0000
  band No.  band energies     occupation 
      1      -6.0977      2.00000
      2      -2.6708      2.00000
      3      -1.9782      2.00000
      4      -1.9782      2.00000
      5      -1.9782      2.00000
      6      -1.9782      2.00000
      7      -1.2664      2.00000
      8       2.8699      2.00000
      9       2.8699      2.00000
     10       2.8699      2.00000
     11       2.8699      2.00000
     12       3.0069      2.00000
     13       3.0069      2.00000
     14       5.5880      2.00000
     15       5.6751      2.00000
     16       5.6751      2.00000
     17       6.4188      0.00001
     18       6.7282      0.00000
     19       6.7282      0.00000
     20       6.7282      0.00000
     21       6.7282      0.00000
     22       6.7443      0.00000
     23       8.3011      0.00000
     24       8.5805      0.00000
     25       8.5805      0.00000

 k-point     3 :       0.1818    0.0000    0.0000
  band No.  band energies     occupation 
      1      -5.9893      2.00000
      2      -3.3020      2.00000
      3      -1.9454      2.00000
      4      -1.9454      2.00000
      5      -1.9454      2.00000
      6      -1.9454      2.00000
      7      -0.5070      2.00000
      8       2.6215      2.00000
      9       2.6215      2.00000
     10       2.6215      2.00000
     11       2.6215      2.00000
     12       3.1044      2.00000
     13       3.1044      2.00000
     14       5.0208      2.00000
     15       5.3276      2.00000
     16       5.3276      2.00000
     17       6.3974      0.00004
     18       7.0582      0.00000
     19       7.2517      0.00000
     20       7.2517      0.00000
     21       7.2517      0.00000
     22       7.2517      0.00000
     23       8.0680      0.00000
     24       9.0608      0.00000
     25       9.0608      0.00000

 k-point     4 :       0.2727    0.0000    0.0000
  band No.  band energies     occupation 
      1      -5.8093      2.00000
      2      -3.8783      2.00000
      3      -1.9005      2.00000
      4      -1.9005      2.00000
      5      -1.9005      2.00000
      6      -1.9005      2.00000
      7       0.2797      2.00000
      8       2.3425      2.00000
      9       2.3425      2.00000
     10       2.3425      2.00000
     11       2.3425      2.00000
     12       3.2660      2.00000
     13       3.2660      2.00000
     14       4.3025      2.00000
     15       4.9112      2.00000
     16       4.9112      2.00000
     17       6.4624      0.00000
     18       7.4771      0.00000
     19       7.7540      0.00000
     20       7.9946      0.00000
     21       7.9946      0.00000
     22       7.9946      0.00000
     23       7.9946      0.00000
     24       9.6964      0.00000
     25       9.6965      0.00000

 k-point     5 :       0.3636    0.0000    0.0000
  band No.  band energies     occupation 
      1      -5.5583      2.00000
      2      -4.3953      2.00000
      3      -1.8570      2.00000
      4      -1.8570      2.00000
      5      -1.8570      2.00000
      6      -1.8570      2.00000
      7       1.0849      2.00000
      8       2.1156      2.00000
      9       2.1156      2.00000
     10       2.1156      2.00000
     11       2.1156      2.00000
     12       3.4898      2.00000
     13       3.4898      2.00000
     14       3.5221      2.00000
     15       4.4952      2.00000
     16       4.4952      2.00000
     17       6.6070      0.00000
     18       7.4174      0.00000
     19       8.0003      0.00000
     20       8.8770      0.00000
     21       8.8770      0.00000
     22       8.8770      0.00000
     23       8.8770      0.00000
     24       9.9592      0.00000
     25      10.4152      0.00000

 k-point     6 :       0.4545    0.0000    0.0000
  band No.  band energies     occupation 
      1      -5.2378      2.00000
      2      -4.8494      2.00000
      3      -1.8300      2.00000
      4      -1.8300      2.00000
      5      -1.8300      2.00000
      6      -1.8300      2.00000
      7       1.8998      2.00000
      8       1.9902      2.00000
      9       1.9902      2.00000
     10       1.9902      2.00000
     11       1.9902      2.00000
     12       2.7157      2.00000
     13       3.7729      2.00000
     14       3.7729      2.00000
     15       4.1108      2.00000
     16       4.1108      2.00000
     17       6.8228      0.00000
     18       7.0984      0.00000
     19       8.6188      0.00000
     20       9.3034      0.00000
     21       9.8105      0.00000
     22       9.8105      0.00000
     23       9.8105      0.00000
     24       9.8105      0.00000
     25      11.1258      0.00000

 k-point     7 :       0.0909    0.0909    0.0000
  band No.  band energies     occupation 
      1      -6.0616      2.00000
      2      -2.6518      2.00000
      3      -2.6518      2.00000
      4      -2.0235      2.00000
      5      -1.9119      2.00000
      6      -1.2646      2.00000
      7      -1.2646      2.00000
      8       2.5624      2.00000
      9       2.8872      2.00000
     10       2.8872      2.00000
     11       2.9222      2.00000
     12       2.9222      2.00000
     13       3.0321      2.00000
     14       5.1918      2.00000
     15       5.5280      2.00000
     16       5.7896      1.99999
     17       6.5995      0.00000
     18       6.6229      0.00000
     19       6.6229      0.00000
     20       6.9292      0.00000
     21       6.9292      0.00000
     22       7.1867      0.00000
     23       8.4632      0.00000
     24       8.5264      0.00000
     25       8.6062      0.00000

 k-point     8 :       0.1818    0.0909    0.0000
  band No.  band energies     occupation 
      1      -5.9535      2.00000
      2      -3.2780      2.00000
      3      -2.5968      2.00000
      4      -2.0562      2.00000
      5      -1.8219      2.00000
      6      -1.2631      2.00000
      7      -0.5198      2.00000
      8       2.2234      2.00000
      9       2.6016      2.00000
     10       2.7233      2.00000
     11       2.9731      2.00000
     12       2.9858      2.00000
     13       3.0450      2.00000
     14       4.6160      2.00000
     15       5.1794      2.00000
     16       5.5867      2.00000
     17       6.6080      0.00000
     18       6.8601      0.00000
     19       7.1629      0.00000
     20       7.2309      0.00000
     21       7.4315      0.00000
     22       7.8687      0.00000
     23       8.2637      0.00000
     24       8.8768      0.00000
     25       8.9855      0.00000

 k-point     9 :       0.2727    0.0909    0.0000
  band No.  band energies     occupation 
      1      -5.7739      2.00000
      2      -3.8506      2.00000
      3      -2.5124      2.00000
      4      -2.0892      2.00000
      5      -1.7115      2.00000
      6      -1.2725      2.00000
      7       0.2456      2.00000
      8       1.9372      2.00000
      9       2.2724      2.00000
     10       2.5117      2.00000
     11       2.7961      2.00000
     12       3.1261      2.00000
     13       3.2385      2.00000
     14       3.9692      2.00000
     15       4.7614      2.00000
     16       5.1681      2.00000
     17       6.6773      0.00000
     18       7.4442      0.00000
     19       7.6364      0.00000
     20       7.9196      0.00000
     21       7.9576      0.00000
     22       8.1547      0.00000
     23       8.6981      0.00000
     24       9.3838      0.00000
     25       9.6296      0.00000

 k-point    10 :       0.3636    0.0909    0.0000
  band No.  band energies     occupation 
      1      -5.5237      2.00000
      2      -4.3650      2.00000
      3      -2.4094      2.00000
      4      -2.1368      2.00000
      5      -1.5899      2.00000
      6      -1.3060      2.00000
      7       1.0202      2.00000
      8       1.7543      2.00000
      9       1.9827      2.00000
     10       2.3655      2.00000
     11       2.5747      2.00000
     12       3.2762      2.00000
     13       3.3441      2.00000
     14       3.5029      2.00000
     15       4.3443      2.00000
     16       4.6917      2.00000
     17       6.8241      0.00000
     18       7.6275      0.00000
     19       8.1453      0.00000
     20       8.2411      0.00000
     21       8.8132      0.00000
     22       9.0182      0.00000
     23       9.6220      0.00000
     24       9.8539      0.00000
     25      10.3908      0.00000

 k-point    11 :       0.4545    0.0909    0.0000
  band No.  band energies     occupation 
      1      -5.2042      2.00000
      2      -4.8172      2.00000
      3      -2.3028      2.00000
      4      -2.2082      2.00000
      5      -1.4715      2.00000
      6      -1.3728      2.00000
      7       1.7010      2.00000
      8       1.7820      2.00000
      9       1.7915      2.00000
     10       2.3261      2.00000
     11       2.4025      2.00000
     12       2.5473      2.00000
     13       3.6237      2.00000
     14       3.8370      2.00000
     15       3.9599      2.00000
     16       4.2373      2.00000
     17       7.0398      0.00000
     18       7.3130      0.00000
     19       8.7485      0.00000
     20       9.1609      0.00000
     21       9.4096      0.00000
     22       9.7842      0.00000
     23       9.8127      0.00000
     24      10.4354      0.00000
     25      10.5232      0.00000

 k-point    12 :       0.1818    0.1818    0.0000
  band No.  band energies     occupation 
      1      -5.8463      2.00000
      2      -3.2073      2.00000
      3      -3.2073      2.00000
      4      -2.1668      2.00000
      5      -1.6776      2.00000
      6      -0.5624      2.00000
      7      -0.5624      2.00000
      8       1.8767      2.00000
      9       2.6602      2.00000
     10       2.6602      2.00000
     11       2.9105      2.00000
     12       2.9105      2.00000
     13       3.2031      2.00000
     14       4.0345      2.00000
     15       4.8277      2.00000
     16       5.6796      2.00000
     17       6.7975      0.00000
     18       7.1594      0.00000
     19       7.1594      0.00000
     20       7.7073      0.00000
     21       7.7073      0.00000
     22       8.6372      0.00000
     23       8.6858      0.00000
     24       8.7832      0.00000
     25       8.8553      0.00000

 k-point    13 :       0.2727    0.1818    0.0000
  band No.  band energies     occupation 
      1      -5.6681      2.00000
      2      -3.7687      2.00000
      3      -3.0945      2.00000
      4      -2.2907      2.00000
      5      -1.5101      2.00000
      6      -0.6437      2.00000
      7       0.1424      2.00000
      8       1.6331      2.00000
      9       2.2945      2.00000
     10       2.7857      2.00000
     11       2.7936      2.00000
     12       3.1859      2.00000
     13       3.2122      2.00000
     14       3.4238      2.00000
     15       4.4060      2.00000
     16       5.4442      2.00000
     17       7.1187      0.00000
     18       7.2352      0.00000
     19       7.9242      0.00000
     20       8.0829      0.00000
     21       8.4048      0.00000
     22       8.4711      0.00000
     23       9.0156      0.00000
     24       9.4512      0.00000
     25       9.5131      0.00000

 k-point    14 :       0.3636    0.1818    0.0000
  band No.  band energies     occupation 
      1      -5.4202      2.00000
      2      -4.2749      2.00000
      3      -2.9476      2.00000
      4      -2.4366      2.00000
      5      -1.3230      2.00000
      6      -0.7696      2.00000
      7       0.8377      2.00000
      8       1.5204      2.00000
      9       1.9585      2.00000
     10       2.7338      2.00000
     11       2.8012      2.00000
     12       2.9983      2.00000
     13       3.0774      2.00000
     14       3.5488      2.00000
     15       3.9865      2.00000
     16       5.0013      2.00000
     17       7.3836      0.00000
     18       7.7557      0.00000
     19       8.1616      0.00000
     20       8.5588      0.00000
     21       8.8225      0.00000
     22       9.2391      0.00000
     23       9.4624      0.00000
     24      10.2069      0.00000
     25      10.4500      0.00000

 k-point    15 :       0.4545    0.1818    0.0000
  band No.  band energies     occupation 
      1      -5.1038      2.00000
      2      -4.7211      2.00000
      3      -2.7787      2.00000
      4      -2.6031      2.00000
      5      -1.1262      2.00000
      6      -0.9354      2.00000
      7       1.5132      2.00000
      8       1.5454      2.00000
      9       1.6986      2.00000
     10       2.1663      2.00000
     11       2.7782      2.00000
     12       2.9069      2.00000
     13       3.2699      2.00000
     14       3.6023      2.00000
     15       3.9908      2.00000
     16       4.4897      2.00000
     17       7.5960      0.00000
     18       7.8610      0.00000
     19       8.5954      0.00000
     20       9.1242      0.00000
     21       9.5057      0.00000
     22       9.6782      0.00000
     23       9.8051      0.00000
     24      10.2819      0.00000
     25      10.3876      0.00000

 k-point    16 :       0.2727    0.2727    0.0000
  band No.  band energies     occupation 
      1      -5.4926      2.00000
      2      -3.6355      2.00000
      3      -3.6355      2.00000
      4      -2.5130      2.00000
      5      -1.2885      2.00000
      6      -0.0279      2.00000
      7      -0.0279      2.00000
      8       1.4590      2.00000
      9       2.4024      2.00000
     10       2.4024      2.00000
     11       2.8513      2.00000
     12       3.1643      2.00000
     13       3.1643      2.00000
     14       3.4790      2.00000
     15       3.9807      2.00000
     16       5.4657      2.00000
     17       7.1177      0.00000
     18       8.0027      0.00000
     19       8.0027      0.00000
     20       8.7493      0.00000
     21       8.7493      0.00000
     22       8.8837      0.00000
     23       9.0559      0.00000
     24       9.3046      0.00000
     25      10.4107      0.00000

 k-point    17 :       0.3636    0.2727    0.0000
  band No.  band energies     occupation 
      1      -5.2485      2.00000
      2      -4.1271      2.00000
      3      -3.4570      2.00000
      4      -2.7540      2.00000
      5      -1.0444      2.00000
      6      -0.2532      2.00000
      7       0.5677      2.00000
      8       1.4235      2.00000
      9       2.0333      2.00000
     10       2.2793      2.00000
     11       2.5897      2.00000
     12       3.2080      2.00000
     13       3.5373      2.00000
     14       3.5596      2.00000
     15       3.6357      2.00000
     16       5.1885      2.00000
     17       7.4909      0.00000
     18       8.1480      0.00000
     19       8.8749      0.00000
     20       8.8992      0.00000
     21       9.0453      0.00000
     22       9.1904      0.00000
     23       9.5283      0.00000
     24       9.9935      0.00000
     25      10.1387      0.00000

 k-point    18 :       0.4545    0.2727    0.0000
  band No.  band energies     occupation 
      1      -4.9377      2.00000
      2      -4.5627      2.00000
      3      -3.2418      2.00000
      4      -3.0023      2.00000
      5      -0.7820      2.00000
      6      -0.5122      2.00000
      7       1.1449      2.00000
      8       1.5192      2.00000
      9       1.7122      2.00000
     10       1.7297      2.00000
     11       2.8504      2.00000
     12       3.1771      2.00000
     13       3.3146      2.00000
     14       3.4482      2.00000
     15       4.1703      2.00000
     16       4.7157      2.00000
     17       8.1684      0.00000
     18       8.3513      0.00000
     19       8.6003      0.00000
     20       9.0333      0.00000
     21       9.4169      0.00000
     22       9.7025      0.00000
     23       9.8806      0.00000
     24       9.9586      0.00000
     25      10.3789      0.00000

 k-point    19 :       0.3636    0.3636    0.0000
  band No.  band energies     occupation 
      1      -5.0104      2.00000
      2      -3.9257      2.00000
      3      -3.9257      2.00000
      4      -3.0771      2.00000
      5      -0.7464      2.00000
      6       0.2473      2.00000
      7       0.2473      2.00000
      8       1.4581      2.00000
      9       1.7556      2.00000
     10       2.1979      2.00000
     11       2.1979      2.00000
     12       3.1394      2.00000
     13       3.7563      2.00000
     14       3.7563      2.00000
     15       3.8441      2.00000
     16       5.1371      2.00000
     17       7.5412      0.00000
     18       8.8170      0.00000
     19       9.0364      0.00000
     20       9.0364      0.00000
     21       9.5114      0.00000
     22       9.5115      0.00000
     23       9.5722      0.00000
     24       9.8714      0.00000
     25      10.0204      0.00000

 k-point    20 :       0.4545    0.3636    0.0000
  band No.  band energies     occupation 
      1      -4.7080      2.00000
      2      -4.3449      2.00000
      3      -3.6769      2.00000
      4      -3.3899      2.00000
      5      -0.4273      2.00000
      6      -0.0918      2.00000
      7       0.7425      2.00000
      8       1.2431      2.00000
      9       1.6104      2.00000
     10       1.8634      2.00000
     11       2.4436      2.00000
     12       2.7613      2.00000
     13       3.8790      2.00000
     14       3.9396      2.00000
     15       4.3225      2.00000
     16       4.8206      2.00000
     17       7.9502      0.00000
     18       8.6474      0.00000
     19       8.8549      0.00000
     20       9.1172      0.00000
     21       9.2242      0.00000
     22       9.4457      0.00000
     23      10.0060      0.00000
     24      10.4817      0.00000
     25      10.6396      0.00000

 k-point    21 :       0.4545    0.4545    0.0000
  band No.  band energies     occupation 
      1      -4.4179      2.00000
      2      -4.0720      2.00000
      3      -4.0720      2.00000
      4      -3.7506      2.00000
      5      -0.0546      2.00000
      6       0.3373      2.00000
      7       0.3373      2.00000
      8       0.7820      2.00000
      9       1.8048      2.00000
     10       2.0879      2.00000
     11       2.0879      2.00000
     12       2.3917      2.00000
     13       4.2718      2.00000
     14       4.3843      2.00000
     15       4.3843      2.00000
     16       4.7210      2.00000
     17       8.0288      0.00000
     18       8.4417      0.00000
     19       8.4417      0.00000
     20       8.5001      0.00000
     21      10.1680      0.00000
     22      10.1680      0.00000
     23      10.2321      0.00000
     24      10.5619      0.00000
     25      11.0493      0.00000

 k-point    22 :       0.0909    0.0909    0.0909
  band No.  band energies     occupation 
      1      -6.0256      2.00000
      2      -2.6358      2.00000
      3      -2.6358      2.00000
      4      -2.6358      2.00000
      5      -1.2632      2.00000
      6      -1.2632      2.00000
      7      -1.2632      2.00000
      8       2.6038      2.00000
      9       2.6038      2.00000
     10       2.6038      2.00000
     11       3.0644      2.00000
     12       3.0644      2.00000
     13       3.0644      2.00000
     14       4.8367      2.00000
     15       5.6546      2.00000
     16       5.6546      2.00000
     17       6.6142      0.00000
     18       6.6142      0.00000
     19       6.6142      0.00000
     20       7.2668      0.00000
     21       7.2668      0.00000
     22       7.2668      0.00000
     23       8.4195      0.00000
     24       8.6358      0.00000
     25       8.6358      0.00000

 k-point    23 :       0.1818    0.0909    0.0909
  band No.  band energies     occupation 
      1      -5.9178      2.00000
      2      -3.2554      2.00000
      3      -2.5909      2.00000
      4      -2.5909      2.00000
      5      -1.2616      2.00000
      6      -1.2616      2.00000
      7      -0.5364      2.00000
      8       2.2731      2.00000
      9       2.2731      2.00000
     10       2.7286      2.00000
     11       3.0225      2.00000
     12       3.0225      2.00000
     13       3.1608      2.00000
     14       4.2710      2.00000
     15       5.3286      2.00000
     16       5.5272      2.00000
     17       6.6696      0.00000
     18       6.8913      0.00000
     19       6.8913      0.00000
     20       7.4951      0.00000
     21       7.9286      0.00000
     22       7.9286      0.00000
     23       8.3615      0.00000
     24       8.6865      0.00000
     25       9.0734      0.00000

 k-point    24 :       0.2727    0.0909    0.0909
  band No.  band energies     occupation 
      1      -5.7387      2.00000
      2      -3.8238      2.00000
      3      -2.5272      2.00000
      4      -2.5272      2.00000
      5      -1.2650      2.00000
      6      -1.2650      2.00000
      7       0.2039      2.00000
      8       1.9911      2.00000
      9       1.9911      2.00000
     10       2.8478      2.00000
     11       2.8478      2.00000
     12       2.9382      2.00000
     13       3.3204      2.00000
     14       3.6589      2.00000
     15       4.9301      2.00000
     16       5.1161      2.00000
     17       6.7812      0.00000
     18       7.4782      0.00000
     19       7.4782      0.00000
     20       7.8532      0.00000
     21       8.1046      0.00000
     22       8.7494      0.00000
     23       8.7494      0.00000
     24       9.1335      0.00000
     25       9.6546      0.00000

 k-point    25 :       0.3636    0.0909    0.0909
  band No.  band energies     occupation 
      1      -5.4893      2.00000
      2      -4.3353      2.00000
      3      -2.4627      2.00000
      4      -2.4627      2.00000
      5      -1.2755      2.00000
      6      -1.2755      2.00000
      7       0.9425      2.00000
      8       1.7988      2.00000
      9       1.7988      2.00000
     10       2.6562      2.00000
     11       2.6562      2.00000
     12       3.0220      2.00000
     13       3.2342      2.00000
     14       3.5412      2.00000
     15       4.5270      2.00000
     16       4.5963      2.00000
     17       6.9548      0.00000
     18       7.7853      0.00000
     19       8.2743      0.00000
     20       8.2743      0.00000
     21       8.3281      0.00000
     22       9.6645      0.00000
     23       9.6645      0.00000
     24       9.7020      0.00000
     25      10.3170      0.00000

 k-point    26 :       0.4545    0.0909    0.0909
  band No.  band energies     occupation 
      1      -5.1709      2.00000
      2      -4.7854      2.00000
      3      -2.4209      2.00000
      4      -2.4209      2.00000
      5      -1.2860      2.00000
      6      -1.2860      2.00000
      7       1.6644      2.00000
      8       1.7058      2.00000
      9       1.7058      2.00000
     10       2.3586      2.00000
     11       2.5362      2.00000
     12       2.5362      2.00000
     13       3.6167      2.00000
     14       3.8200      2.00000
     15       4.0786      2.00000
     16       4.1515      2.00000
     17       7.1875      0.00000
     18       7.4698      0.00000
     19       8.9042      0.00000
     20       9.1893      0.00000
     21       9.1893      0.00000
     22       9.5299      0.00000
     23      10.1765      0.00000
     24      10.1765      0.00000
     25      10.7035      0.00000

 k-point    27 :       0.1818    0.1818    0.0909
  band No.  band energies     occupation 
      1      -5.8109      2.00000
      2      -3.1894      2.00000
      3      -3.1894      2.00000
      4      -2.5791      2.00000
      5      -1.2549      2.00000
      6      -0.5890      2.00000
      7      -0.5890      2.00000
      8       1.9464      2.00000
      9       2.4218      2.00000
     10       2.4218      2.00000
     11       3.1336      2.00000
     12       3.1336      2.00000
     13       3.2342      2.00000
     14       3.7096      2.00000
     15       5.0759      2.00000
     16       5.5768      2.00000
     17       6.8382      0.00000
     18       6.9840      0.00000
     19       6.9840      0.00000
     20       8.1083      0.00000
     21       8.1083      0.00000
     22       8.3958      0.00000
     23       8.6864      0.00000
     24       8.8029      0.00000
     25       9.0995      0.00000

 k-point    28 :       0.2727    0.1818    0.0909
  band No.  band energies     occupation 
      1      -5.6333      2.00000
      2      -3.7446      2.00000
      3      -3.0863      2.00000
      4      -2.5794      2.00000
      5      -1.2344      2.00000
      6      -0.6820      2.00000
      7       0.0807      2.00000
      8       1.7231      2.00000
      9       2.1477      2.00000
     10       2.6671      2.00000
     11       3.0071      2.00000
     12       3.1223      2.00000
     13       3.2468      2.00000
     14       3.3222      2.00000
     15       4.6699      2.00000
     16       5.3558      2.00000
     17       7.1361      0.00000
     18       7.1599      0.00000
     19       7.5785      0.00000
     20       8.4079      0.00000
     21       8.4164      0.00000
     22       8.8930      0.00000
     23       8.9044      0.00000
     24       9.5388      0.00000
     25       9.5571      0.00000

 k-point    29 :       0.3636    0.1818    0.0909
  band No.  band energies     occupation 
      1      -5.3863      2.00000
      2      -4.2468      2.00000
      3      -2.9573      2.00000
      4      -2.6147      2.00000
      5      -1.1834      2.00000
      6      -0.8110      2.00000
      7       0.7298      2.00000
      8       1.6239      2.00000
      9       1.9249      2.00000
     10       2.5354      2.00000
     11       2.8995      2.00000
     12       2.9981      2.00000
     13       3.1239      2.00000
     14       3.5955      2.00000
     15       4.2375      2.00000
     16       4.9166      2.00000
     17       7.3434      0.00000
     18       7.7940      0.00000
     19       8.1890      0.00000
     20       8.3723      0.00000
     21       8.8242      0.00000
     22       9.3378      0.00000
     23       9.7872      0.00000
     24      10.1517      0.00000
     25      10.4876      0.00000

 k-point    30 :       0.4545    0.1818    0.0909
  band No.  band energies     occupation 
      1      -5.0712      2.00000
      2      -4.6904      2.00000
      3      -2.8199      2.00000
      4      -2.6979      2.00000
      5      -1.0886      2.00000
      6      -0.9563      2.00000
      7       1.3508      2.00000
      8       1.6422      2.00000
      9       1.7521      2.00000
     10       1.9485      2.00000
     11       2.8864      2.00000
     12       2.9761      2.00000
     13       3.3887      2.00000
     14       3.8074      2.00000
     15       3.9627      2.00000
     16       4.4188      2.00000
     17       7.5986      0.00000
     18       7.8890      0.00000
     19       8.6299      0.00000
     20       9.2623      0.00000
     21       9.3423      0.00000
     22       9.6373      0.00000
     23       9.7796      0.00000
     24      10.2671      0.00000
     25      10.3148      0.00000

 k-point    31 :       0.2727    0.2727    0.0909
  band No.  band energies     occupation 
      1      -5.4586      2.00000
      2      -3.6169      2.00000
[...]
     20       8.1007      0.00000
     21       9.1410      0.00000
     22       9.3271      0.00000
     23       9.3271      0.00000
     24       9.3336      0.00000
     25      10.6337      0.00000

 k-point    45 :       0.4545    0.3636    0.1818
  band No.  band energies     occupation 
      1      -4.6906      2.00000
      2      -4.3508      2.00000
      3      -3.7642      2.00000
      4      -3.5532      2.00000
      5      -0.9329      2.00000
      6      -0.6984      2.00000
      7      -0.0219      2.00000
      8       0.3906      2.00000
      9       2.1628      2.00000
     10       2.3802      2.00000
     11       3.0028      2.00000
     12       3.4008      2.00000
     13       3.8140      2.00000
     14       3.8581      2.00000
     15       4.1522      2.00000
     16       4.5767      2.00000
     17       7.8522      0.00000
     18       8.1557      0.00000
     19       8.2716      0.00000
     20       8.4654      0.00000
     21       8.9100      0.00000
     22       8.9498      0.00000
     23       8.9763      0.00000
     24       9.7390      0.00000
     25       9.7608      0.00000

 k-point    46 :       0.4545    0.4545    0.1818
  band No.  band energies     occupation 
      1      -4.4223      2.00000
      2      -4.1090      2.00000
      3      -4.1090      2.00000
      4      -3.8363      2.00000
      5      -0.7004      2.00000
      6      -0.3915      2.00000
      7      -0.3915      2.00000
      8      -0.0266      2.00000
      9       2.4237      2.00000
     10       2.7108      2.00000
     11       2.7108      2.00000
     12       3.0530      2.00000
     13       4.1494      2.00000
     14       4.2408      2.00000
     15       4.2408      2.00000
     16       4.5292      2.00000
     17       7.8784      0.00000
     18       8.0964      0.00000
     19       8.1816      0.00000
     20       8.1816      0.00000
     21       9.1667      0.00000
     22       9.1667      0.00000
     23       9.4136      0.00000
     24       9.5015      0.00000
     25       9.8742      0.00000

 k-point    47 :       0.2727    0.2727    0.2727
  band No.  band energies     occupation 
      1      -5.2729      2.00000
      2      -3.6104      2.00000
      3      -3.6104      2.00000
      4      -3.6104      2.00000
      5      -0.7410      2.00000
      6      -0.7410      2.00000
      7      -0.7410      2.00000
      8       1.3304      2.00000
      9       2.2997      2.00000
     10       2.2997      2.00000
     11       2.2997      2.00000
     12       3.5622      2.00000
     13       3.5622      2.00000
     14       3.5622      2.00000
     15       4.7936      2.00000
     16       4.7936      2.00000
     17       7.2937      0.00000
     18       7.2937      0.00000
     19       7.2937      0.00000
     20       7.4883      0.00000
     21       9.1295      0.00000
     22       9.1295      0.00000
     23      10.5115      0.00000
     24      10.5115      0.00000
     25      10.5115      0.00000

 k-point    48 :       0.3636    0.2727    0.2727
  band No.  band energies     occupation 
      1      -5.0450      2.00000
      2      -4.0287      2.00000
      3      -3.5376      2.00000
      4      -3.5376      2.00000
      5      -0.9594      2.00000
      6      -0.9594      2.00000
      7      -0.4088      2.00000
      8       0.8292      2.00000
      9       2.3697      2.00000
     10       2.3697      2.00000
     11       2.9022      2.00000
     12       3.6452      2.00000
     13       3.6452      2.00000
     14       3.7486      2.00000
     15       4.5191      2.00000
     16       4.6472      2.00000
     17       7.5395      0.00000
     18       7.5816      0.00000
     19       7.6246      0.00000
     20       7.6246      0.00000
     21       8.9518      0.00000
     22       9.3776      0.00000
     23       9.9372      0.00000
     24       9.9372      0.00000
     25      10.0044      0.00000

 k-point    49 :       0.4545    0.2727    0.2727
  band No.  band energies     occupation 
      1      -4.7575      2.00000
      2      -4.4158      2.00000
      3      -3.4903      2.00000
      4      -3.4903      2.00000
      5      -1.0867      2.00000
      6      -1.0867      2.00000
      7      -0.0408      2.00000
      8       0.3709      2.00000
      9       2.4231      2.00000
     10       2.4231      2.00000
     11       3.5476      2.00000
     12       3.6515      2.00000
     13       3.6515      2.00000
     14       3.9778      2.00000
     15       4.1671      2.00000
     16       4.2398      2.00000
     17       7.7776      0.00000
     18       7.8265      0.00000
     19       8.2236      0.00000
     20       8.2236      0.00000
     21       8.9133      0.00000
     22       9.0512      0.00000
     23       9.0512      0.00000
     24       9.3189      0.00000
     25       9.7018      0.00000

 k-point    50 :       0.3636    0.3636    0.2727
  band No.  band energies     occupation 
      1      -4.8277      2.00000
      2      -3.8928      2.00000
      3      -3.8928      2.00000
      4      -3.5587      2.00000
      5      -1.1022      2.00000
      6      -0.7352      2.00000
      7      -0.7352      2.00000
      8       0.3519      2.00000
      9       2.5724      2.00000
     10       2.9590      2.00000
     11       2.9590      2.00000
     12       3.8635      2.00000
     13       3.8635      2.00000
     14       3.8767      2.00000
     15       4.2997      2.00000
     16       4.7213      2.00000
     17       7.4905      0.00000
     18       7.6349      0.00000
     19       7.8240      0.00000
     20       7.8240      0.00000
     21       9.0594      0.00000
     22       9.2174      0.00000
     23       9.3501      0.00000
     24       9.3501      0.00000
     25       9.8801      0.00000

 k-point    51 :       0.4545    0.3636    0.2727
  band No.  band energies     occupation 
      1      -4.5567      2.00000
      2      -4.2403      2.00000
      3      -3.7510      2.00000
      4      -3.6313      2.00000
      5      -1.1130      2.00000
      6      -0.9828      2.00000
      7      -0.4383      2.00000
      8      -0.0738      2.00000
      9       2.7594      2.00000
     10       2.9023      2.00000
     11       3.5159      2.00000
     12       3.9465      2.00000
     13       3.9610      2.00000
     14       3.9709      2.00000
     15       4.1583      2.00000
     16       4.5039      2.00000
     17       7.7129      0.00000
     18       7.9187      0.00000
     19       7.9388      0.00000
     20       8.2394      0.00000
     21       8.7610      0.00000
     22       8.9209      0.00000
     23       8.9376      0.00000
     24       9.2048      0.00000
     25       9.4334      0.00000

 k-point    52 :       0.4545    0.4545    0.2727
  band No.  band energies     occupation 
      1      -4.3114      2.00000
      2      -4.0355      2.00000
      3      -4.0355      2.00000
      4      -3.8227      2.00000
      5      -1.0016      2.00000
      6      -0.7679      2.00000
      7      -0.7679      2.00000
      8      -0.4592      2.00000
      9       3.0572      2.00000
     10       3.3172      2.00000
     11       3.3172      2.00000
     12       3.6656      2.00000
     13       4.2170      2.00000
     14       4.2822      2.00000
     15       4.2822      2.00000
     16       4.5208      2.00000
     17       7.7517      0.00000
     18       7.8706      0.00000
     19       7.9724      0.00000
     20       7.9724      0.00000
     21       8.8968      0.00000
     22       8.8968      0.00000
     23       9.1282      0.00000
     24       9.2128      0.00000
     25       9.2596      0.00000

 k-point    53 :       0.3636    0.3636    0.3636
  band No.  band energies     occupation 
      1      -4.6261      2.00000
      2      -3.8184      2.00000
      3      -3.8184      2.00000
      4      -3.8184      2.00000
      5      -1.0094      2.00000
      6      -1.0094      2.00000
      7      -1.0094      2.00000
      8      -0.1017      2.00000
      9       3.2311      2.00000
     10       3.2311      2.00000
     11       3.2311      2.00000
     12       4.0249      2.00000
     13       4.0249      2.00000
     14       4.0249      2.00000
     15       4.5647      2.00000
     16       4.5647      2.00000
     17       7.2289      0.00000
     18       7.7630      0.00000
     19       7.7630      0.00000
     20       7.7630      0.00000
     21       9.0794      0.00000
     22       9.0794      0.00000
     23       9.2283      0.00000
     24       9.2283      0.00000
     25       9.2283      0.00000

 k-point    54 :       0.4545    0.3636    0.3636
  band No.  band energies     occupation 
      1      -4.3799      2.00000
      2      -4.1032      2.00000
      3      -3.7700      2.00000
      4      -3.7700      2.00000
      5      -1.1626      2.00000
      6      -1.1626      2.00000
      7      -0.7996      2.00000
      8      -0.4911      2.00000
      9       3.3700      2.00000
     10       3.3700      2.00000
     11       3.8737      2.00000
     12       4.1260      2.00000
     13       4.1260      2.00000
     14       4.1988      2.00000
     15       4.3845      2.00000
     16       4.3861      2.00000
     17       7.3660      0.00000
     18       7.6824      0.00000
     19       7.8887      0.00000
     20       7.8887      0.00000
     21       8.8617      0.00000
     22       8.8617      0.00000
     23       8.8819      0.00000
     24       8.9213      0.00000
     25       9.2181      0.00000

 k-point    55 :       0.4545    0.4545    0.3636
  band No.  band energies     occupation 
      1      -4.1739      2.00000
      2      -3.9606      2.00000
      3      -3.9606      2.00000
      4      -3.8411      2.00000
      5      -1.1914      2.00000
      6      -1.0625      2.00000
      7      -1.0625      2.00000
      8      -0.8296      2.00000
      9       3.6996      2.00000
     10       3.8823      2.00000
     11       3.8823      2.00000
     12       4.2007      2.00000
     13       4.2978      2.00000
     14       4.3258      2.00000
     15       4.3258      2.00000
     16       4.4956      2.00000
     17       7.3175      0.00000
     18       7.5857      0.00000
     19       7.5857      0.00000
     20       7.6533      0.00000
     21       8.8678      0.00000
     22       8.8678      0.00000
     23       8.9401      0.00000
     24       9.0283      0.00000
     25       9.0327      0.00000

 k-point    56 :       0.4545    0.4545    0.4545
  band No.  band energies     occupation 
      1      -4.0311      2.00000
      2      -3.9118      2.00000
      3      -3.9118      2.00000
      4      -3.9118      2.00000
      5      -1.2250      2.00000
      6      -1.2250      2.00000
      7      -1.2250      2.00000
      8      -1.0965      2.00000
      9       4.2325      2.00000
     10       4.2325      2.00000
     11       4.2325      2.00000
     12       4.3790      2.00000
     13       4.3790      2.00000
     14       4.3790      2.00000
     15       4.4479      2.00000
     16       4.4479      2.00000
     17       7.0937      0.00000
     18       7.2752      0.00000
     19       7.2752      0.00000
     20       7.2752      0.00000
     21       8.9159      0.00000
     22       8.9159      0.00000
     23       8.9159      0.00000
     24       8.9771      0.00000
     25       8.9772      0.00000


--------------------------------------------------------------------------------------------------------


 soft charge-density along one line, spin component           1
         0         1         2         3         4         5         6         7         8         9
 total charge-density along one line
 
 pseudopotential strength for first ion, spin component:           1
 18.438  25.724   0.000   0.000  -0.000   0.000   0.000  -0.000
 25.724  35.895   0.000   0.000  -0.000   0.000   0.000  -0.000
  0.000   0.000   4.181   0.000  -0.000   7.791   0.000  -0.000
  0.000   0.000   0.000   4.181   0.000   0.000   7.791   0.000
 -0.000  -0.000  -0.000   0.000   4.181  -0.000   0.000   7.791
  0.000   0.000   7.791   0.000  -0.000  14.529   0.000  -0.000
  0.000   0.000   0.000   7.791   0.000   0.000  14.529   0.000
 -0.000  -0.000  -0.000   0.000   7.791  -0.000   0.000  14.529
 total augmentation occupancy for first ion, spin component:           1
  5.527  -2.064   0.000   0.000   0.000   0.000  -0.000  -0.000
 -2.064   0.888   0.000   0.000  -0.000  -0.000  -0.000  -0.000
 -0.000  -0.000   2.899   0.000   0.000  -0.648  -0.000   0.000
  0.000   0.000   0.000   2.899  -0.000  -0.000  -0.648   0.000
 -0.000   0.000  -0.000   0.000   2.899   0.000   0.000  -0.648
 -0.000   0.000  -0.648  -0.000   0.000   0.153   0.000  -0.000
 -0.000  -0.000  -0.000  -0.648   0.000   0.000   0.153  -0.000
 -0.000   0.000   0.000   0.000  -0.648  -0.000  -0.000   0.153


------------------------ aborting loop because EDIFF is reached ----------------------------------------


    CHARGE:  cpu time    0.1101: real time    0.1106
    FORLOC:  cpu time    0.0014: real time    0.0014
    FORNL :  cpu time    0.1995: real time    0.2002
    STRESS:  cpu time    0.4700: real time    0.5509
    FORCOR:  cpu time    0.0191: real time    0.0212
    FORHAR:  cpu time    0.0049: real time    0.0051
    MIXING:  cpu time    0.0009: real time    0.0009
    OFIELD:  cpu time    0.0000: real time    0.0000

  FORCE on cell =-STRESS in cart. coord.  units (eV):
  Direction    XX          YY          ZZ          XY          YZ          ZX
  --------------------------------------------------------------------------------------
  Alpha Z    13.16684    13.16684    13.16684
  Ewald    -302.54871  -302.54871  -302.54871     0.00000     0.00000     0.00000
  Hartree    20.23598    20.23598    20.23598    -0.00000    -0.00000    -0.00000
  E(xc)    -100.97666  -100.97666  -100.97666     0.00000     0.00000    -0.00000
  Local    -118.01301  -118.01301  -118.01301     0.00000     0.00000     0.00000
  n-local   309.64011   313.11451   306.50461    -2.94204    -2.29371    -1.50593
  augment   -46.59893   -46.59893   -46.59893     0.00000    -0.00000     0.00000
  Kinetic   217.73009   229.52742   227.60062    -3.73593    -5.28121    -2.56045
  Fock        0.00000     0.00000     0.00000     0.00000     0.00000     0.00000
  -------------------------------------------------------------------------------------
  Total      -0.02871    -0.02871    -0.02871     0.00000     0.00000     0.00000
  in kB      -0.28114    -0.28114    -0.28114     0.00000     0.00000     0.00000
  external pressure =       -0.28 kB  Pullay stress =        0.00 kB


 VOLUME and BASIS-vectors are now :
 -----------------------------------------------------------------------------
  energy-cutoff  :      900.00
  volume of cell :      163.63
      direct lattice vectors                 reciprocal lattice vectors
     5.469541754 -0.000000000 -0.000000000     0.182830673 -0.000000000 -0.000000000
     0.000000000  5.469541754  0.000000000     0.000000000  0.182830673 -0.000000000
     0.000000000  0.000000000  5.469541754     0.000000000 -0.000000000  0.182830673

  length of vectors
     5.469541754  5.469541754  5.469541754     0.182830673  0.182830673  0.182830673


 FORCES acting on ions
    electron-ion (+dipol)            ewald-force                    non-local-force                 convergence-correction
 -----------------------------------------------------------------------------------------------
   0.133E-12 0.119E-14 -.175E-13   0.711E-14 0.355E-14 0.000E+00   -.781E-17 0.130E-17 0.191E-16   -.231E-14 -.185E-14 0.250E-14
   0.132E-12 -.156E-13 -.290E-13   0.711E-14 0.355E-14 0.000E+00   -.182E-16 -.208E-16 0.191E-16   -.103E-14 -.177E-14 -.153E-14
   0.133E-12 0.189E-15 0.670E-12   0.711E-14 0.355E-14 0.000E+00   0.607E-17 0.954E-17 0.278E-16   0.604E-15 -.184E-14 -.151E-14
   0.122E-12 0.521E-12 0.969E-13   0.711E-14 0.355E-14 0.000E+00   0.269E-16 0.160E-16 0.191E-16   0.125E-14 -.118E-14 0.277E-14
   -.144E-12 -.671E-13 -.366E-13   -.101E-13 -.274E-14 -.972E-15   -.382E-16 -.191E-16 -.173E-16   0.558E-15 -.139E-14 0.510E-14
   -.157E-12 0.837E-13 -.268E-12   -.944E-14 -.240E-14 -.976E-15   0.295E-16 0.260E-17 -.312E-16   0.361E-14 -.433E-15 0.385E-14
   -.162E-12 0.214E-12 -.403E-12   -.112E-13 -.473E-14 0.898E-15   -.156E-16 0.499E-16 -.130E-16   0.398E-14 -.185E-14 0.152E-14
   -.143E-12 0.150E-12 0.227E-12   -.119E-13 -.440E-14 0.894E-15   -.173E-17 0.221E-16 -.373E-16   0.769E-15 -.591E-15 0.843E-15
 -----------------------------------------------------------------------------------------------
   -.848E-13 0.888E-12 0.240E-12   -.142E-13 -.606E-16 -.156E-15   -.191E-16 0.616E-16 -.139E-16   0.743E-14 -.109E-13 0.135E-13
 
 
 POSITION                                       TOTAL-FORCE (eV/Angst)
 -----------------------------------------------------------------------------------
     -0.00000     -0.00000     -0.00000        -0.000000      0.000000     -0.000000
      0.00000      2.73477      2.73477        -0.000000     -0.000000     -0.000000
      2.73477      0.00000      2.73477        -0.000000      0.000000     -0.000000
      2.73477      2.73477     -0.00000        -0.000000      0.000000     -0.000000
      1.36739      1.36739      1.36739         0.000000     -0.000000      0.000000
      4.10216      4.10216      1.36739         0.000000     -0.000000      0.000000
      4.10216      1.36739      4.10216         0.000000      0.000000      0.000000
      1.36739      4.10216      4.10216         0.000000     -0.000000      0.000000
 -----------------------------------------------------------------------------------
    total drift:                               -0.000000      0.000000      0.000000


--------------------------------------------------------------------------------------------------------



  FREE ENERGIE OF THE ION-ELECTRON SYSTEM (eV)
  ---------------------------------------------------
  free  energy   TOTEN  =       -43.40041025 eV

  energy  without entropy=      -43.40041021  energy(sigma->0) =      -43.40041023
 
 d Force = 0.0000000E+00[ 0.000E+00, 0.000E+00]  d Energy = 0.1068951E+00-0.107E+00
 d Force = 0.0000000E+00[ 0.000E+00, 0.000E+00]  d Ewald  = 0.1471883E+02-0.147E+02


--------------------------------------------------------------------------------------------------------


    POTLOK:  cpu time    0.0186: real time    0.0216


--------------------------------------------------------------------------------------------------------




--------------------------------------------------------------------------------------------------------


  
 reached required accuracy - stopping structural energy minimisation
 writing wavefunctions
     LOOP+:  cpu time   13.3369: real time   13.7700
    4ORBIT:  cpu time    0.0000: real time    0.0000

 total amount of memory used by VASP on root node    44239. kBytes
========================================================================

   base      :      30000. kBytes
   nonl-proj :       4621. kBytes
   fftplans  :       1665. kBytes
   grid      :       2328. kBytes
   one-center:          3. kBytes
   wavefun   :       5622. kBytes
 
  
  
 General timing and accounting informations for this job:
 ========================================================
  
                  Total CPU time used (sec):       47.289
                            User time (sec):       46.270
                          System time (sec):        1.018
                         Elapsed time (sec):       49.472
  
                   Maximum memory used (kb):      168348.
                   Average memory used (kb):           0.
  
                          Minor page faults:        47280
                          Major page faults:           57
                 Voluntary context switches:         1886
