diamond Si                              
   5.43100000000000     
     1.020975    0.000000    0.000000
     0.000000    1.020975    0.000000
     0.000000    0.000000    1.020975
   Si
     8
Direct
  0.000000  0.000000  0.000000
  0.000000  0.500000  0.500000
  0.500000  0.000000  0.500000
  0.500000  0.500000  0.000000
  0.250000  0.250000  0.250000
  0.750000  0.750000  0.250000
  0.750000  0.250000  0.750000
  0.250000  0.750000  0.750000
 
   56   56   56
 -30.684     -26.110     -13.420      4.6012      24.231      41.816      54.647      61.442      62.393      58.825    
  52.657      45.728      38.909      32.569      26.926      22.075      18.017      14.695      12.020      9.8905    
  8.2090      6.8897      5.8614      5.0684      4.4686      4.0307      3.7326      3.5595      3.5027      3.5595    
  3.7326      4.0307      4.4686      5.0684      5.8614      6.8897      8.2090      9.8905      12.020      14.695    
  18.017      22.075      26.926      32.569      38.909      45.728      52.657      58.825      62.393      61.442    
  54.647      41.816      24.231      4.6012     -13.420     -26.110     -26.110     -21.695     -9.4532      7.9067    
  26.766      43.582      55.736      62.006      62.605      58.848      52.619      45.698      38.898      32.580    
  26.958      22.123      18.076      14.760      12.088      9.9586      8.2761      6.9549      5.9246      5.1297    
  4.5283      4.0891      3.7901      3.6164      3.5595      3.6164      3.7901      4.0891      4.5283      5.1297    
  5.9246      6.9549      8.2761      9.9586      12.088      14.760      18.076      22.123      26.958      32.580    
  38.898      45.698      52.619      58.848      62.605      62.006      55.736      43.582      26.766      7.9067    
 -9.4532     -21.695     -13.420     -9.4532      1.5233      17.018      33.710      48.369      58.635      63.451    
  63.091      58.837      52.471      45.585      38.851      32.605      27.048      22.262      18.250      14.955    
  12.292      10.164      8.4790      7.1528      6.1168      5.3164      4.7102      4.2672      3.9655      3.7901    
  3.7326      3.7901      3.9655      4.2672      4.7102      5.3164      6.1168      7.1528      8.4790      10.164    
  12.292      14.955      18.250      22.262      27.048      32.605      38.851      45.585      52.471      58.837    
  63.091      63.451      58.635      48.369      33.710      17.018      1.5233     -9.4532      4.6012      7.9067    
  17.018      29.769      43.291      54.815      62.366      65.132      63.465      58.587      52.119      45.330    
  38.727      32.616      27.176      22.482      18.532      15.276      12.632      10.511      8.8231      7.4902    
  6.4456      5.6366      5.0227      4.5735      4.2672      4.0891      4.0307      4.0891      4.2672      4.5735    
  5.0227      5.6366      6.4456      7.4902      8.8231      10.511      12.632      15.276      18.532      22.482    
  27.176      32.616      38.727      45.330      52.119      58.587      63.465      65.132      62.366      54.815    
  43.291      29.769      17.018      7.9067      24.231      26.766      33.710      43.291      53.174      61.145    
  65.679      66.239      63.259      57.868      51.448      44.854      38.475      32.577      27.319      22.764    
  18.913      15.719      13.110      11.003      9.3171      7.9782      6.9239      6.1042      5.4803      5.0227    
  4.7102      4.5283      4.4686      4.5283      4.7102      5.0227      5.4803      6.1042      6.9239      7.9782    
  9.3171      11.003      13.110      15.719      18.913      22.764      27.319      32.577      38.475      44.854    
  51.448      57.868      63.259      66.239      65.679      61.145      53.174      43.291      33.710      26.766    
  41.816      43.582      48.369      54.815      61.145      65.714      67.453      66.089      62.115      56.533    
  50.360      44.088      38.043      32.451      27.447      23.090      19.380      16.280      13.727      11.649    
  9.9734      8.6328      7.5704      6.7396      6.1042      5.6366      5.3164      5.1297      5.0684      5.1297    
  5.3164      5.6366      6.1042      6.7396      7.5704      8.6328      9.9734      11.649      13.727      16.280    
  19.380      23.090      27.447      32.451      38.043      44.088      50.360      56.533      62.115      66.089    
  67.453      65.714      61.145      54.815      48.369      43.582      54.647      55.736      58.635      62.366    
  65.679      67.453      67.025      64.345      59.919      54.556      48.801      42.992      37.396      32.206    
  27.535      23.438      19.921      16.953      14.486      12.459      10.808      9.4755      8.4100      7.5704    
  6.9239      6.4456      6.1168      5.9246      5.8614      5.9246      6.1168      6.4456      6.9239      7.5704    
  8.4100      9.4755      10.808      12.459      14.486      16.953      19.921      23.438      27.535      32.206    
  37.396      42.992      48.801      54.556      59.919      64.345      67.025      67.453      65.679      62.366    
  58.635      55.736      61.442      62.006      63.451      65.132      66.239      66.089      64.345      61.107    
  56.834      51.960      46.780      41.562      36.525      31.827      27.567      23.796      20.526      17.738    
  15.395      13.447      11.844      10.534      9.4755      8.6328      7.9782      7.4902      7.1528      6.9549    
  6.8897      6.9549      7.1528      7.4902      7.9782      8.6328      9.4755      10.534      11.844      13.447    
  15.395      17.738      20.526      23.796      27.567      31.827      36.525      41.562      46.780      51.960    
  56.834      61.107      64.345      66.089      66.239      65.132      63.451      62.006      62.393      62.605    
  63.091      63.465      63.259      62.115      59.919      56.834      53.073      48.840      44.357      39.833    
  35.442      31.314      27.535      24.156      21.192      18.637      16.463      14.634      13.107      11.844    
  10.808      9.9734      9.3171      8.8231      8.4790      8.2761      8.2090      8.2761      8.4790      8.8231    
  9.3171      9.9734      10.808      11.844      13.107      14.634      16.463      18.637      21.192      24.156    
  27.535      31.314      35.442      39.833      44.357      48.840      53.073      56.834      59.919      62.115    
  63.259      63.465      63.091      62.605      58.825      58.848      58.837      58.587      57.868      56.533    
  54.556      51.960      48.840      45.343      41.633      37.867      34.182      30.683      27.447      24.520    
  21.925      19.660      17.709      16.044      14.634      13.447      12.459      11.649      11.003      10.511    
  10.164      9.9586      9.8905      9.9586      10.164      10.511      11.003      11.649      12.459      13.447    
  14.634      16.044      17.709      19.660      21.925      24.520      27.447      30.683      34.182      37.867    
  41.633      45.343      48.840      51.960      54.556      56.533      57.868      58.587      58.837      58.848    
  52.657      52.619      52.471      52.119      51.448      50.360      48.801      46.780      44.357      41.633    
  38.722      35.741      32.793      29.964      27.319      24.902      22.735      20.823      19.155      17.709    
  16.463      15.395      14.486      13.727      13.110      12.632      12.292      12.088      12.020      12.088    
  12.292      12.632      13.110      13.727      14.486      15.395      16.463      17.709      19.155      20.823    
  22.735      24.902      27.319      29.964      32.793      35.741      38.722      41.633      44.357      46.780    
  48.801      50.360      51.448      52.119      52.471      52.619      45.728      45.698      45.585      45.330    
  44.854      44.088      42.992      41.562      39.833      37.867      35.741      33.536      31.331      29.193    
  27.176      25.318      23.639      22.144      20.823      19.660      18.637      17.738      16.953      16.280    
  15.719      15.276      14.955      14.760      14.695      14.760      14.955      15.276      15.719      16.280    
  16.953      17.738      18.637      19.660      20.823      22.144      23.639      25.318      27.176      29.193    
  31.331      33.536      35.741      37.867      39.833      41.562      42.992      44.088      44.854      45.330    
  45.585      45.698      38.909      38.898      38.851      38.727      38.475      38.043      37.396      36.525    
  35.442      34.182      32.793      31.331      29.853      28.411      27.048      25.790      24.654      23.639    
  22.735      21.925      21.192      20.526      19.921      19.380      18.913      18.532      18.250      18.076    
  18.017      18.076      18.250      18.532      18.913      19.380      19.921      20.526      21.192      21.925    
  22.735      23.639      24.654      25.790      27.048      28.411      29.853      31.331      32.793      34.182    
  35.442      36.525      37.396      38.043      38.475      38.727      38.851      38.898      32.569      32.580    
  32.605      32.616      32.577      32.451      32.206      31.827      31.314      30.683      29.964      29.193    
  28.411      27.657      26.958      26.335      25.790      25.318      24.902      24.520      24.156      23.796    
  23.438      23.090      22.764      22.482      22.262      22.123      22.075      22.123      22.262      22.482    
  22.764      23.090      23.438      23.796      24.156      24.520      24.902      25.318      25.790      26.335    
  26.958      27.657      28.411      29.193      29.964      30.683      31.314      31.827      32.206      32.451    
  32.577      32.616      32.605      32.580      26.926      26.958      27.048      27.176      27.319      27.447    
  27.535      27.567      27.535      27.447      27.319      27.176      27.048      26.958      26.926      26.958    
  27.048      27.176      27.319      27.447      27.535      27.567      27.535      27.447      27.319      27.176    
  27.048      26.958      26.926      26.958      27.048      27.176      27.319      27.447      27.535      27.567    
  27.535      27.447      27.319      27.176      27.048      26.958      26.926      26.958      27.048      27.176    
  27.319      27.447      27.535      27.567      27.535      27.447      27.319      27.176      27.048      26.958    
  22.075      22.123      22.262      22.482      22.764      23.090      23.438      23.796      24.156      24.520    
  24.902      25.318      25.790      26.335      26.958      27.657      28.411      29.193      29.964      30.683    
  31.314      31.827      32.206      32.451      32.577      32.616      32.605      32.580      32.569      32.580    
  32.605      32.616      32.577      32.451      32.206      31.827      31.314      30.683      29.964      29.193    
  28.411      27.657      26.958      26.335      25.790      25.318      24.902      24.520      24.156      23.796    
  23.438      23.090      22.764      22.482      22.262      22.123      18.017      18.076      18.250      18.532    
  18.913      19.380      19.921      20.526      21.192      21.925      22.735      23.639      24.654      25.790    
  27.048      28.411      29.853      31.331      32.793      34.182      35.442      36.525      37.396      38.043    
  38.475      38.727      38.851      38.898      38.909      38.898      38.851      38.727      38.475      38.043    
  37.396      36.525      35.442      34.182      32.793      31.331      29.853      28.411      27.048      25.790    
  24.654      23.639      22.735      21.925      21.192      20.526      19.921      19.380      18.913      18.532    
  18.250      18.076      14.695      14.760      14.955      15.276      15.719      16.280      16.953      17.738    
  18.637      19.660      20.823      22.144      23.639      25.318      27.176      29.193      31.331      33.536    
  35.741      37.867      39.833      41.562      42.992      44.088      44.854      45.330      45.585      45.698    
  45.728      45.698      45.585      45.330      44.854      44.088      42.992      41.562      39.833      37.867    
  35.741      33.536      31.331      29.193      27.176      25.318      23.639      22.144      20.823      19.660    
  18.637      17.738      16.953      16.280      15.719      15.276      14.955      14.760      12.020      12.088    
  12.292      12.632      13.110      13.727      14.486      15.395      16.463      17.709      19.155      20.823    
  22.735      24.902      27.319      29.964      32.793      35.741      38.722      41.633      44.357      46.780    
  48.801      50.360      51.448      52.119      52.471      52.619      52.657      52.619      52.471      52.119    
  51.448      50.360      48.801      46.780      44.357      41.633      38.722      35.741      32.793      29.964    
  27.319      24.902      22.735      20.823      19.155      17.709      16.463      15.395      14.486      13.727    
  13.110      12.632      12.292      12.088      9.8905      9.9586      10.164      10.511      11.003      11.649    
  12.459      13.447      14.634      16.044      17.709      19.660      21.925      24.520      27.447      30.683    
  34.182      37.867      41.633      45.343      48.840      51.960      54.556      56.533      57.868      58.587    
  58.837      58.848      58.825      58.848      58.837      58.587      57.868      56.533      54.556      51.960    
  48.840      45.343      41.633      37.867      34.182      30.683      27.447      24.520      21.925      19.660    
  17.709      16.044      14.634      13.447      12.459      11.649      11.003      10.511      10.164      9.9586    
  8.2090      8.2761      8.4790      8.8231      9.3171      9.9734      10.808      11.844      13.107      14.634    
  16.463      18.637      21.192      24.156      27.535      31.314      35.442      39.833      44.357      48.840    
  53.073      56.834      59.919      62.115      63.259      63.465      63.091      62.605      62.393      62.605    
  63.091      63.465      63.259      62.115      59.919      56.834      53.073      48.840      44.357      39.833    
  35.442      31.314      27.535      24.156      21.192      18.637      16.463      14.634      13.107      11.844    
  10.808      9.9734      9.3171      8.8231      8.4790      8.2761      6.8897      6.9549      7.1528      7.4902    
  7.9782      8.6328      9.4755      10.534      11.844      13.447      15.395      17.738      20.526      23.796    
  27.567      31.827      36.525      41.562      46.780      51.960      56.834      61.107      64.345      66.089    
  66.239      65.132      63.451      62.006      61.442      62.006      63.451      65.132      66.239      66.089    
  64.345      61.107      56.834      51.960      46.780      41.562      36.525      31.827      27.567      23.796    
  20.526      17.738      15.395      13.447      11.844      10.534      9.4755      8.6328      7.9782      7.4902    
  7.1528      6.9549      5.8614      5.9246      6.1168      6.4456      6.9239      7.5704      8.4100      9.4755    
  10.808      12.459      14.486      16.953      19.921      23.438      27.535      32.206      37.396      42.992    
  48.801      54.556      59.919      64.345      67.025      67.453      65.679      62.366      58.635      55.736    
  54.647      55.736      58.635      62.366      65.679      67.453      67.025      64.345      59.919      54.556    
  48.801      42.992      37.396      32.206      27.535      23.438      19.921      16.953      14.486      12.459    
  10.808      9.4755      8.4100      7.5704      6.9239      6.4456      6.1168      5.9246      5.0684      5.1297    
  5.3164      5.6366      6.1042      6.7396      7.5704      8.6328      9.9734      11.649      13.727      16.280    
  19.380      23.090      27.447      32.451      38.043      44.088      50.360      56.533      62.115      66.089    
  67.453      65.714      61.145      54.815      48.369      43.582      41.816      43.582      48.369      54.815    
  61.145      65.714      67.453      66.089      62.115      56.533      50.360      44.088      38.043      32.451    
  27.447      23.090      19.380      16.280      13.727      11.649      9.9734      8.6328      7.5704      6.7396    
  6.1042      5.6366      5.3164      5.1297      4.4686      4.5283      4.7102      5.0227      5.4803      6.1042    
  6.9239      7.9782      9.3171      11.003      13.110      15.719      18.913      22.764      27.319      32.577    
  38.475      44.854      51.448      57.868      63.259      66.239      65.679      61.145      53.174      43.291    
  33.710      26.766      24.231      26.766      33.710      43.291      53.174      61.145      65.679      66.239    
  63.259      57.868      51.448      44.854      38.475      32.577      27.319      22.764      18.913      15.719    
  13.110      11.003      9.3171      7.9782      6.9239      6.1042      5.4803      5.0227      4.7102      4.5283    
  4.0307      4.0891      4.2672      4.5735      5.0227      5.6366      6.4456      7.4902      8.8231      10.511    
  12.632      15.276      18.532      22.482      27.176      32.616      38.727      45.330      52.119      58.587    
  63.465      65.132      62.366      54.815      43.291      29.769      17.018      7.9067      4.6012      7.9067    
  17.018      29.769      43.291      54.815      62.366      65.132      63.465      58.587      52.119      45.330    
  38.727      32.616      27.176      22.482      18.532      15.276      12.632      10.511      8.8231      7.4902    
  6.4456      5.6366      5.0227      4.5735      4.2672      4.0891      3.7326      3.7901      3.9655      4.2672    
  4.7102      5.3164      6.1168      7.1528      8.4790      10.164      12.292      14.955      18.250      22.262    
  27.048      32.605      38.851      45.585      52.471      58.837      63.091      63.451      58.635      48.369    
  33.710      17.018      1.5233     -9.4532     -13.420     -9.4532      1.5233      17.018      33.710      48.369    
  58.635      63.451      63.091      58.837      52.471      45.585      38.851      32.605      27.048      22.262    
  18.250      14.955      12.292      10.164      8.4790      7.1528      6.1168      5.3164      4.7102      4.2672    
  3.9655      3.7901      3.5595      3.6164      3.7901      4.0891      4.5283      5.1297      5.9246      6.9549    
  8.2761      9.9586      12.088      14.760      18.076      22.123      26.958      32.580      38.898      45.698    
  52.619      58.848      62.605      62.006      55.736      43.582      26.766      7.9067     -9.4532     -21.695    
 -26.110     -21.695     -9.4532      7.9067      26.766      43.582      55.736      62.006      62.605      58.848    
  52.619      45.698      38.898      32.580      26.958      22.123      18.076      14.760      12.088      9.9586    
  8.2761      6.9549      5.9246      5.1297      4.5283      4.0891      3.7901      3.6164      3.5027      3.5595    
  3.7326      4.0307      4.4686      5.0684      5.8614      6.8897      8.2090      9.8905      12.020      14.695    
  18.017      22.075      26.926      32.569      38.909      45.728      52.657      58.825      62.393      61.442    
  54.647      41.816      24.231      4.6012     -13.420     -26.110     -30.684     -26.110     -13.420      4.6012    
  24.231      41.816      54.647      61.442      62.393      58.825      52.657      45.728      38.909      32.569    
  26.926      22.075      18.017      14.695      12.020      9.8905      8.2090      6.8897      5.8614      5.0684    
  4.4686      4.0307      3.7326      3.5595      3.5595      3.6164      3.7901      4.0891      4.5283      5.1297    
  5.9246      6.9549      8.2761      9.9586      12.088      14.760      18.076      22.123      26.958      32.580    
  38.898      45.698      52.619      58.848      62.605      62.006      55.736      43.582      26.766      7.9067    
 -9.4532     -21.695     -26.110     -21.695     -9.4532      7.9067      26.766      43.582      55.736      62.006    
  62.605      58.848      52.619      45.698      38.898      32.580      26.958      22.123      18.076      14.760    
  12.088      9.9586      8.2761      6.9549      5.9246      5.1297      4.5283      4.0891      3.7901      3.6164    
  3.7326      3.7901      3.9655      4.2672      4.7102      5.3164      6.1168      7.1528      8.4790      10.164    
  12.292      14.955      18.250      22.262      27.048      32.605      38.851      45.585      52.471      58.837    
  63.091      63.451      58.635      48.369      33.710      17.018      1.5233     -9.4532     -13.420     -9.4532    
  1.5233      17.018      33.710      48.369      58.635      63.451      63.091      58.837      52.471      45.585    
  38.851      32.605      27.048      22.262      18.250      14.955      12.292      10.164      8.4790      7.1528    
  6.1168      5.3164      4.7102      4.2672      3.9655      3.7901      4.0307      4.0891      4.2672      4.5735    
  5.0227      5.6366      6.4456      7.4902      8.8231      10.511      12.632      15.276      18.532      22.482    
  27.176      32.616      38.727      45.330      52.119      58.587      63.465      65.132      62.366      54.815    
  43.291      29.769      17.018      7.9067      4.6012      7.9067      17.018      29.769      43.291      54.815    
  62.366      65.132      63.465      58.587      52.119      45.330      38.727      32.616      27.176      22.482    
  18.532      15.276      12.632      10.511      8.8231      7.4902      6.4456      5.6366      5.0227      4.5735    
  4.2672      4.0891      4.4686      4.5283      4.7102      5.0227      5.4803      6.1042      6.9239      7.9782    
  9.3171      11.003      13.110      15.719      18.913      22.764      27.319      32.577      38.475      44.854    
  51.448      57.868      63.259      66.239      65.679      61.145      53.174      43.291      33.710      26.766    
  24.231      26.766      33.710      43.291      53.174      61.145      65.679      66.239      63.259      57.868    
  51.448      44.854      38.475      32.577      27.319      22.764      18.913      15.719      13.110      11.003    
  9.3171      7.9782      6.9239      6.1042      5.4803      5.0227      4.7102      4.5283      5.0684      5.1297    
  5.3164      5.6366      6.1042      6.7396      7.5704      8.6328      9.9734      11.649      13.727      16.280    
  19.380      23.090      27.447      32.451      38.043      44.088      50.360      56.533      62.115      66.089    
  67.453      65.714      61.145      54.815      48.369      43.582      41.816      43.582      48.369      54.815    
  61.145      65.714      67.453      66.089      62.115      56.533      50.360      44.088      38.043      32.451    
  27.447      23.090      19.380      16.280      13.727      11.649      9.9734      8.6328      7.5704      6.7396    
  6.1042      5.6366      5.3164      5.1297      5.8614      5.9246      6.1168      6.4456      6.9239      7.5704    
  8.4100      9.4755      10.808      12.459      14.486      16.953      19.921      23.438      27.535      32.206    
  37.396      42.992      48.801      54.556      59.919      64.345      67.025      67.453      65.679      62.366    
  58.635      55.736      54.647      55.736      58.635      62.366      65.679      67.453      67.025      64.345    
  59.919      54.556      48.801      42.992      37.396      32.206      27.535      23.438      19.921      16.953    
  14.486      12.459      10.808      9.4755      8.4100      7.5704      6.9239      6.4456      6.1168      5.9246    
  6.8897      6.9549      7.1528      7.4902      7.9782      8.6328      9.4755      10.534      11.844      13.447    
  15.395      17.738      20.526      23.796      27.567      31.827      36.525      41.562      46.780      51.960    
  56.834      61.107      64.345      66.089      66.239      65.132      63.451      62.006      61.442      62.006    
  63.451      65.132      66.239      66.089      64.345      61.107      56.834      51.960      46.780      41.562    
  36.525      31.827      27.567      23.796      20.526      17.738      15.395      13.447      11.844      10.534    
  9.4755      8.6328      7.9782      7.4902      7.1528      6.9549      8.2090      8.2761      8.4790      8.8231    
  9.3171      9.9734      10.808      11.844      13.107      14.634      16.463      18.637      21.192      24.156    
  27.535      31.314      35.442      39.833      44.357      48.840      53.073      56.834      59.919      62.115    
  63.259      63.465      63.091      62.605      62.393      62.605      63.091      63.465      63.259      62.115    
  59.919      56.834      53.073      48.840      44.357      39.833      35.442      31.314      27.535      24.156    
  21.192      18.637      16.463      14.634      13.107      11.844      10.808      9.9734      9.3171      8.8231    
  8.4790      8.2761      9.8905      9.9586      10.164      10.511      11.003      11.649      12.459      13.447    
  14.634      16.044      17.709      19.660      21.925      24.520      27.447      30.683      34.182      37.867    
  41.633      45.343      48.840      51.960      54.556      56.533      57.868      58.587      58.837      58.848    
  58.825      58.848      58.837      58.587      57.868      56.533      54.556      51.960      48.840      45.343    
  41.633      37.867      34.182      30.683      27.447      24.520      21.925      19.660      17.709      16.044    
  14.634      13.447      12.459      11.649      11.003      10.511      10.164      9.9586      12.020      12.088    
  12.292      12.632      13.110      13.727      14.486      15.395      16.463      17.709      19.155      20.823    
  22.735      24.902      27.319      29.964      32.793      35.741      38.722      41.633      44.357      46.780    
  48.801      50.360      51.448      52.119      52.471      52.619      52.657      52.619      52.471      52.119    
  51.448      50.360      48.801      46.780      44.357      41.633      38.722      35.741      32.793      29.964    
  27.319      24.902      22.735      20.823      19.155      17.709      16.463      15.395      14.486      13.727    
  13.110      12.632      12.292      12.088      14.695      14.760      14.955      15.276      15.719      16.280    
  16.953      17.738      18.637      19.660      20.823      22.144      23.639      25.318      27.176      29.193    
  31.331      33.536      35.741      37.867      39.833      41.562      42.992      44.088      44.854      45.330    
  45.585      45.698      45.728      45.698      45.585      45.330      44.854      44.088      42.992      41.562    
  39.833      37.867      35.741      33.536      31.331      29.193      27.176      25.318      23.639      22.144    
  20.823      19.660      18.637      17.738      16.953      16.280      15.719      15.276      14.955      14.760    
  18.017      18.076      18.250      18.532      18.913      19.380      19.921      20.526      21.192      21.925    
  22.735      23.639      24.654      25.790      27.048      28.411      29.853      31.331      32.793      34.182    
  35.442      36.525      37.396      38.043      38.475      38.727      38.851      38.898      38.909      38.898    
  38.851      38.727      38.475      38.043      37.396      36.525      35.442      34.182      32.793      31.331    
  29.853      28.411      27.048      25.790      24.654      23.639      22.735      21.925      21.192      20.526    
  19.921      19.380      18.913      18.532      18.250      18.076      22.075      22.123      22.262      22.482    
  22.764      23.090      23.438      23.796      24.156      24.520      24.902      25.318      25.790      26.335    
  26.958      27.657      28.411      29.193      29.964      30.683      31.314      31.827      32.206      32.451    
  32.577      32.616      32.605      32.580      32.569      32.580      32.605      32.616      32.577      32.451    
  32.206      31.827      31.314      30.683      29.964      29.193      28.411      27.657      26.958      26.335    
  25.790      25.318      24.902      24.520      24.156      23.796      23.438      23.090      22.764      22.482    
  22.262      22.123      26.926      26.958      27.048      27.176      27.319      27.447      27.535      27.567    
  27.535      27.447      27.319      27.176      27.048      26.958      26.926      26.958      27.048      27.176    
  27.319      27.447      27.535      27.567      27.535      27.447      27.319      27.176      27.048      26.958    
  26.926      26.958      27.048      27.176      27.319      27.447      27.535      27.567      27.535      27.447    
  27.319      27.176      27.048      26.958      26.926      26.958      27.048      27.176      27.319      27.447    
  27.535      27.567      27.535      27.447      27.319      27.176      27.048      26.958      32.569      32.580    
  32.605      32.616      32.577      32.451      32.206      31.827      31.314      30.683      29.964      29.193    
  28.411      27.657      26.958      26.335      25.790      25.318      24.902      24.520      24.156      23.796    
  23.438      23.090      22.764      22.482      22.262      22.123      22.075      22.123      22.262      22.482    