diamond Si                              
   5.43100000000000     
     1.006342    0.000000    0.000000
     0.000000    1.006342    0.000000
     0.000000    0.000000    1.006342
   Si
     8
Direct
  0.000000  0.000000 -0.000000
 -0.000000  0.500000  0.500000
  0.500000  0.000000  0.500000
  0.500000  0.500000 -0.000000
  0.250000  0.250000  0.250000
  0.750000  0.750000  0.250000
  0.750000  0.250000  0.750000
  0.250000  0.750000  0.750000
 
   56   56   56
 -.31064741520E+02 -.26370903132E+02 -.13360788000E+02 0.50776380184E+01 0.25090703156E+02
 0.42915535220E+02 0.55784196716E+02 0.62426064915E+02 0.63096640397E+02 0.59217122315E+02
 0.52794739336E+02 0.45697926962E+02 0.38762680773E+02 0.32354184435E+02 0.26681035989E+02
 0.21825562112E+02 0.17779488342E+02 0.14477492149E+02 0.11824728957E+02 0.97172642246E+01
 0.80558001635E+01 0.67535726563E+01 0.57395245776E+01 0.49581405726E+01 0.43674635083E+01
 0.39365919906E+01 0.36434700519E+01 0.34732879066E+01 0.34174938436E+01 0.34732879066E+01
 0.36434700519E+01 0.39365919906E+01 0.43674635083E+01 0.49581405726E+01 0.57395245776E+01
 0.67535726563E+01 0.80558001635E+01 0.97172642246E+01 0.11824728957E+02 0.14477492149E+02
 0.17779488342E+02 0.21825562112E+02 0.26681035989E+02 0.32354184435E+02 0.38762680773E+02
 0.45697926962E+02 0.52794739336E+02 0.59217122315E+02 0.63096640397E+02 0.62426064915E+02
 0.55784196716E+02 0.42915535220E+02 0.25090703156E+02 0.50776380184E+01 -.13360788000E+02
 -.26370903132E+02 -.26370903132E+02 -.21842391184E+02 -.92989547412E+01 0.84515522924E+01
 0.27665859907E+02 0.44695682619E+02 0.56868320682E+02 0.62973967388E+02 0.63289905709E+02
 0.59224510509E+02 0.52747809174E+02 0.45661510705E+02 0.38747803177E+02 0.32363316066E+02
 0.26711645939E+02 0.21872744258E+02 0.17837837780E+02 0.14542227084E+02 0.11892186149E+02
 0.97849661909E+01 0.81222893338E+01 0.68181574909E+01 0.58020254219E+01 0.50186805527E+01
 0.44263217456E+01 0.39941164284E+01 0.37000345080E+01 0.35292747114E+01 0.34732879066E+01
 0.35292747114E+01 0.37000345080E+01 0.39941164284E+01 0.44263217456E+01 0.50186805527E+01
 0.58020254219E+01 0.68181574909E+01 0.81222893338E+01 0.97849661909E+01 0.11892186149E+02
 0.14542227084E+02 0.17837837780E+02 0.21872744258E+02 0.26711645939E+02 0.32363316066E+02
 0.38747803177E+02 0.45661510705E+02 0.52747809174E+02 0.59224510509E+02 0.63289905709E+02
 0.62973967388E+02 0.56868320682E+02 0.44695682619E+02 0.27665859907E+02 0.84515522924E+01
 -.92989547412E+01 -.21842391184E+02 -.13360788000E+02 -.92989547412E+01 0.19279810752E+01
 0.17740438473E+02 0.34709352859E+02 0.49511866217E+02 0.59744733156E+02 0.64368763515E+02
 0.63720153272E+02 0.59167469185E+02 0.52571757871E+02 0.45530143934E+02 0.38688823421E+02
 0.32381308876E+02 0.26797317536E+02 0.22010402407E+02 0.18010712298E+02 0.14735624036E+02
 0.12094851799E+02 0.99892334887E+01 0.83235659594E+01 0.70141693053E+01 0.59920654716E+01
 0.52029915739E+01 0.46056586440E+01 0.41694786739E+01 0.38725249419E+01 0.37000345080E+01
 0.36434700519E+01 0.37000345080E+01 0.38725249419E+01 0.41694786739E+01 0.46056586440E+01
 0.52029915739E+01 0.59920654716E+01 0.70141693053E+01 0.83235659594E+01 0.99892334887E+01
 0.12094851799E+02 0.14735624036E+02 0.18010712298E+02 0.22010402407E+02 0.26797317536E+02
 0.32381308876E+02 0.38688823421E+02 0.45530143934E+02 0.52571757871E+02 0.59167469185E+02
 0.63720153272E+02 0.64368763515E+02 0.59744733156E+02 0.49511866217E+02 0.34709352859E+02
 0.17740438473E+02 0.19279810752E+01 -.92989547412E+01 0.50776380184E+01 0.84515522924E+01
 0.17740438473E+02 0.30707849213E+02 0.44395882130E+02 0.55967572800E+02 0.63418819467E+02
 0.65958620441E+02 0.64001864123E+02 0.58847026598E+02 0.52177008799E+02 0.45245446587E+02
 0.38547317500E+02 0.32382489942E+02 0.26920861117E+02 0.22227437779E+02 0.18291763148E+02
 0.15055234562E+02 0.12433502059E+02 0.10333431252E+02 0.86649643980E+01 0.73483338857E+01
 0.63172659965E+01 0.55192083008E+01 0.49138647151E+01 0.44711775028E+01 0.41694786739E+01
 0.39941164284E+01 0.39365919906E+01 0.39941164284E+01 0.41694786739E+01 0.44711775028E+01
 0.49138647151E+01 0.55192083008E+01 0.63172659965E+01 0.73483338857E+01 0.86649643980E+01
 0.10333431252E+02 0.12433502059E+02 0.15055234562E+02 0.18291763148E+02 0.22227437779E+02
 0.26920861117E+02 0.32382489942E+02 0.38547317500E+02 0.45245446587E+02 0.52177008799E+02
 0.58847026598E+02 0.64001864123E+02 0.65958620441E+02 0.63418819467E+02 0.55967572800E+02
 0.44395882130E+02 0.30707849213E+02 0.17740438473E+02 0.84515522924E+01 0.25090703156E+02
 0.27665859907E+02 0.34709352859E+02 0.44395882130E+02 0.54330004002E+02 0.62250883567E+02
 0.66621621759E+02 0.66932843552E+02 0.63674748824E+02 0.58041991563E+02 0.51452167346E+02
 0.44733283532E+02 0.38272834402E+02 0.32331676791E+02 0.27057617389E+02 0.22507233812E+02
 0.18671113862E+02 0.15497072773E+02 0.12909258047E+02 0.10822934934E+02 0.91552041194E+01
 0.78318196255E+01 0.67904462329E+01 0.59811609230E+01 0.53653243544E+01 0.49138647151E+01
 0.46056586440E+01 0.44263217456E+01 0.43674635083E+01 0.44263217456E+01 0.46056586440E+01
 0.49138647151E+01 0.53653243544E+01 0.59811609230E+01 0.67904462329E+01 0.78318196255E+01
 0.91552041194E+01 0.10822934934E+02 0.12909258047E+02 0.15497072773E+02 0.18671113862E+02
 0.22507233812E+02 0.27057617389E+02 0.32331676791E+02 0.38272834402E+02 0.44733283532E+02
 0.51452167346E+02 0.58041991563E+02 0.63674748824E+02 0.66932843552E+02 0.66621621759E+02
 0.62250883567E+02 0.54330004002E+02 0.44395882130E+02 0.34709352859E+02 0.27665859907E+02
 0.42915535220E+02 0.44695682619E+02 0.49511866217E+02 0.55967572800E+02 0.62250883567E+02
 0.66692803540E+02 0.68227040937E+02 0.66613891289E+02 0.62392850947E+02 0.56618904480E+02
 0.50303295642E+02 0.43928407365E+02 0.37817869774E+02 0.32193006123E+02 0.27180486913E+02
 0.22830392961E+02 0.19136748299E+02 0.16056244006E+02 0.13523830328E+02 0.11465235142E+02
 0.98065142621E+01 0.84804799575E+01 0.74300335790E+01 0.66089631583E+01 0.59811609230E+01
 0.55192083008E+01 0.52029915739E+01 0.50186805527E+01 0.49581405726E+01 0.50186805527E+01
 0.52029915739E+01 0.55192083008E+01 0.59811609230E+01 0.66089631583E+01 0.74300335790E+01
 0.84804799575E+01 0.98065142621E+01 0.11465235142E+02 0.13523830328E+02 0.16056244006E+02
 0.19136748299E+02 0.22830392961E+02 0.27180486913E+02 0.32193006123E+02 0.37817869774E+02
 0.43928407365E+02 0.50303295642E+02 0.56618904480E+02 0.62392850947E+02 0.66613891289E+02
 0.68227040937E+02 0.66692803540E+02 0.62250883567E+02 0.55967572800E+02 0.49511866217E+02
 0.44695682619E+02 0.55784196716E+02 0.56868320682E+02 0.59744733156E+02 0.63418819467E+02
 0.66621621759E+02 0.68227040937E+02 0.67587751297E+02 0.64684499976E+02 0.60063528469E+02
 0.54553396013E+02 0.48684031071E+02 0.42794172620E+02 0.37150690559E+02 0.31938244063E+02
 0.27265317974E+02 0.23178229227E+02 0.19676763244E+02 0.16728392542E+02 0.14280473816E+02
 0.12270638032E+02 0.10635262580E+02 0.93155435794E+01 0.82608994605E+01 0.74300335790E+01
 0.67904462329E+01 0.63172659965E+01 0.59920654716E+01 0.58020254219E+01 0.57395245776E+01
 0.58020254219E+01 0.59920654716E+01 0.63172659965E+01 0.67904462329E+01 0.74300335790E+01
 0.82608994605E+01 0.93155435794E+01 0.10635262580E+02 0.12270638032E+02 0.14280473816E+02
 0.16728392542E+02 0.19676763244E+02 0.23178229227E+02 0.27265317974E+02 0.31938244063E+02
 0.37150690559E+02 0.42794172620E+02 0.48684031071E+02 0.54553396013E+02 0.60063528469E+02
 0.64684499976E+02 0.67587751297E+02 0.68227040937E+02 0.66621621759E+02 0.63418819467E+02
 0.59744733156E+02 0.56868320682E+02 0.62426064915E+02 0.62973967388E+02 0.64368763515E+02
 0.65958620441E+02 0.66932843552E+02 0.66613891289E+02 0.64684499976E+02 0.61273528060E+02
 0.56862553411E+02 0.51874290128E+02 0.46607402619E+02 0.41331675366E+02 0.36262544448E+02
 0.31552564320E+02 0.27295553850E+02 0.23536456467E+02 0.20282219683E+02 0.17511846247E+02
 0.15185587703E+02 0.13253506564E+02 0.11663025501E+02 0.10364678528E+02 0.93155435794E+01
 0.84804799575E+01 0.78318196255E+01 0.73483338857E+01 0.70141693053E+01 0.68181574909E+01
 0.67535726563E+01 0.68181574909E+01 0.70141693053E+01 0.73483338857E+01 0.78318196255E+01
 0.84804799575E+01 0.93155435794E+01 0.10364678528E+02 0.11663025501E+02 0.13253506564E+02
 0.15185587703E+02 0.17511846247E+02 0.20282219683E+02 0.23536456467E+02 0.27295553850E+02
 0.31552564320E+02 0.36262544448E+02 0.41331675366E+02 0.46607402619E+02 0.51874290128E+02
 0.56862553411E+02 0.61273528060E+02 0.64684499976E+02 0.66613891289E+02 0.66932843552E+02
 0.65958620441E+02 0.64368763515E+02 0.62973967388E+02 0.63096640397E+02 0.63289905709E+02
 0.63720153272E+02 0.64001864123E+02 0.63674748824E+02 0.62392850947E+02 0.60063528469E+02
 0.56862553411E+02 0.52999785975E+02 0.48683259827E+02 0.44139580305E+02 0.39577783920E+02
 0.35168471965E+02 0.31036954685E+02 0.27265317974E+02 0.23898298497E+02 0.20949881061E+02
 0.18409816087E+02 0.16250388028E+02 0.14433534064E+02 0.12917646590E+02 0.11663025501E+02
 0.10635262580E+02 0.98065142621E+01 0.91552041194E+01 0.86649643980E+01 0.83235659594E+01
 0.81222893338E+01 0.80558001635E+01 0.81222893338E+01 0.83235659594E+01 0.86649643980E+01
 0.91552041194E+01 0.98065142621E+01 0.10635262580E+02 0.11663025501E+02 0.12917646590E+02
 0.14433534064E+02 0.16250388028E+02 0.18409816087E+02 0.20949881061E+02 0.23898298497E+02
 0.27265317974E+02 0.31036954685E+02 0.35168471965E+02 0.39577783920E+02 0.44139580305E+02
 0.48683259827E+02 0.52999785975E+02 0.56862553411E+02 0.60063528469E+02 0.62392850947E+02
 0.63674748824E+02 0.64001864123E+02 0.63720153272E+02 0.63289905709E+02 0.59217122315E+02
 0.59224510509E+02 0.59167469185E+02 0.58847026598E+02 0.58041991563E+02 0.56618904480E+02
 0.54553396013E+02 0.51874290128E+02 0.48683259827E+02 0.45130427387E+02 0.41382178851E+02
 0.37595580099E+02 0.33903245753E+02 0.30407532097E+02 0.27180486913E+02 0.24266193986E+02
 0.21683867826E+02 0.19431675319E+02 0.17491741667E+02 0.15836223619E+02 0.14433534064E+02
 0.13253506564E+02 0.12270638032E+02 0.11465235142E+02 0.10822934934E+02 0.10333431252E+02
 0.99892334887E+01 0.97849661909E+01 0.97172642246E+01 0.97849661909E+01 0.99892334887E+01
 0.10333431252E+02 0.10822934934E+02 0.11465235142E+02 0.12270638032E+02 0.13253506564E+02
 0.14433534064E+02 0.15836223619E+02 0.17491741667E+02 0.19431675319E+02 0.21683867826E+02
 0.24266193986E+02 0.27180486913E+02 0.30407532097E+02 0.33903245753E+02 0.37595580099E+02
 0.41382178851E+02 0.45130427387E+02 0.48683259827E+02 0.51874290128E+02 0.54553396013E+02
 0.56618904480E+02 0.58041991563E+02 0.58847026598E+02 0.59167469185E+02 0.59224510509E+02
 0.52794739336E+02 0.52747809174E+02 0.52571757871E+02 0.52177008799E+02 0.51452167346E+02
 0.50303295642E+02 0.48684031071E+02 0.46607402619E+02 0.44139580305E+02 0.41382178851E+02
 0.38451641022E+02 0.35462177898E+02 0.32514923604E+02 0.29692617379E+02 0.27057617389E+02
 0.24651446682E+02 0.22495367009E+02 0.20592414157E+02 0.18931287481E+02 0.17491741667E+02
 0.16250388028E+02 0.15185587703E+02 0.14280473816E+02 0.13523830328E+02 0.12909258047E+02
 0.12433502059E+02 0.12094851799E+02 0.11892186149E+02 0.11824728957E+02 0.11892186149E+02
 0.12094851799E+02 0.12433502059E+02 0.12909258047E+02 0.13523830328E+02 0.14280473816E+02
 0.15185587703E+02 0.16250388028E+02 0.17491741667E+02 0.18931287481E+02 0.20592414157E+02
 0.22495367009E+02 0.24651446682E+02 0.27057617389E+02 0.29692617379E+02 0.32514923604E+02
 0.35462177898E+02 0.38451641022E+02 0.41382178851E+02 0.44139580305E+02 0.46607402619E+02
 0.48684031071E+02 0.50303295642E+02 0.51452167346E+02 0.52177008799E+02 0.52571757871E+02
 0.52747809174E+02 0.45697926962E+02 0.45661510705E+02 0.45530143934E+02 0.45245446587E+02
 0.44733283532E+02 0.43928407365E+02 0.42794172620E+02 0.41331675366E+02 0.39577783920E+02
 0.37595580099E+02 0.35462177898E+02 0.33257842865E+02 0.31058079515E+02 0.28928410557E+02
 0.26920861117E+02 0.25071606451E+02 0.23400040921E+02 0.21909865394E+02 0.20592414157E+02
 0.19431675319E+02 0.18409816087E+02 0.17511846247E+02 0.16728392542E+02 0.16056244006E+02
 0.15497072773E+02 0.15055234562E+02 0.14735624036E+02 0.14542227084E+02 0.14477492149E+02
 0.14542227084E+02 0.14735624036E+02 0.15055234562E+02 0.15497072773E+02 0.16056244006E+02
 0.16728392542E+02 0.17511846247E+02 0.18409816087E+02 0.19431675319E+02 0.20592414157E+02
 0.21909865394E+02 0.23400040921E+02 0.25071606451E+02 0.26920861117E+02 0.28928410557E+02
 0.31058079515E+02 0.33257842865E+02 0.35462177898E+02 0.37595580099E+02 0.39577783920E+02
 0.41331675366E+02 0.42794172620E+02 0.43928407365E+02 0.44733283532E+02 0.45245446587E+02
 0.45530143934E+02 0.45661510705E+02 0.38762680773E+02 0.38747803177E+02 0.38688823421E+02
 0.38547317500E+02 0.38272834402E+02 0.37817869774E+02 0.37150690559E+02 0.36262544448E+02
 0.35168471965E+02 0.33903245753E+02 0.32514923604E+02 0.31058079515E+02 0.29587697923E+02
 0.28153874842E+02 0.26797317536E+02 0.25545982672E+02 0.24413513899E+02 0.23400040921E+02
 0.22495367009E+02 0.21683867826E+02 0.20949881061E+02 0.20282219683E+02 0.19676763244E+02
 0.19136748299E+02 0.18671113862E+02 0.18291763148E+02 0.18010712298E+02 0.17837837780E+02
 0.17779488342E+02 0.17837837780E+02 0.18010712298E+02 0.18291763148E+02 0.18671113862E+02
 0.19136748299E+02 0.19676763244E+02 0.20282219683E+02 0.20949881061E+02 0.21683867826E+02
 0.22495367009E+02 0.23400040921E+02 0.24413513899E+02 0.25545982672E+02 0.26797317536E+02
 0.28153874842E+02 0.29587697923E+02 0.31058079515E+02 0.32514923604E+02 0.33903245753E+02
 0.35168471965E+02 0.36262544448E+02 0.37150690559E+02 0.37817869774E+02 0.38272834402E+02
 0.38547317500E+02 0.38688823421E+02 0.38747803177E+02 0.32354184435E+02 0.32363316066E+02
 0.32381308876E+02 0.32382489942E+02 0.32331676791E+02 0.32193006123E+02 0.31938244063E+02
 0.31552564320E+02 0.31036954685E+02 0.30407532097E+02 0.29692617379E+02 0.28928410557E+02
 0.28153874842E+02 0.27405359410E+02 0.26711645939E+02 0.26090278730E+02 0.25545982672E+02
 0.25071606451E+02 0.24651446682E+02 0.24266193986E+02 0.23898298497E+02 0.23536456467E+02
 0.23178229227E+02 0.22830392961E+02 0.22507233812E+02 0.22227437779E+02 0.22010402407E+02
 0.21872744258E+02 0.21825562112E+02 0.21872744258E+02 0.22010402407E+02 0.22227437779E+02
 0.22507233812E+02 0.22830392961E+02 0.23178229227E+02 0.23536456467E+02 0.23898298497E+02
 0.24266193986E+02 0.24651446682E+02 0.25071606451E+02 0.25545982672E+02 0.26090278730E+02
 0.26711645939E+02 0.27405359410E+02 0.28153874842E+02 0.28928410557E+02 0.29692617379E+02
 0.30407532097E+02 0.31036954685E+02 0.31552564320E+02 0.31938244063E+02 0.32193006123E+02
 0.32331676791E+02 0.32382489942E+02 0.32381308876E+02 0.32363316066E+02 0.26681035989E+02
 0.26711645939E+02 0.26797317536E+02 0.26920861117E+02 0.27057617389E+02 0.27180486913E+02
 0.27265317974E+02 0.27295553850E+02 0.27265317974E+02 0.27180486913E+02 0.27057617389E+02
 0.26920861117E+02 0.26797317536E+02 0.26711645939E+02 0.26681035989E+02 0.26711645939E+02
 0.26797317536E+02 0.26920861117E+02 0.27057617389E+02 0.27180486913E+02 0.27265317974E+02
 0.27295553850E+02 0.27265317974E+02 0.27180486913E+02 0.27057617389E+02 0.26920861117E+02
 0.26797317536E+02 0.26711645939E+02 0.26681035989E+02 0.26711645939E+02 0.26797317536E+02
 0.26920861117E+02 0.27057617389E+02 0.27180486913E+02 0.27265317974E+02 0.27295553850E+02
 0.27265317974E+02 0.27180486913E+02 0.27057617389E+02 0.26920861117E+02 0.26797317536E+02
 0.26711645939E+02 0.26681035989E+02 0.26711645939E+02 0.26797317536E+02 0.26920861117E+02
 0.27057617389E+02 0.27180486913E+02 0.27265317974E+02 0.27295553850E+02 0.27265317974E+02
 0.27180486913E+02 0.27057617389E+02 0.26920861117E+02 0.26797317536E+02 0.26711645939E+02
 0.21825562112E+02 0.21872744258E+02 0.22010402407E+02 0.22227437779E+02 0.22507233812E+02
 0.22830392961E+02 0.23178229227E+02 0.23536456467E+02 0.23898298497E+02 0.24266193986E+02
 0.24651446682E+02 0.25071606451E+02 0.25545982672E+02 0.26090278730E+02 0.26711645939E+02
 0.27405359410E+02 0.28153874842E+02 0.28928410557E+02 0.29692617379E+02 0.30407532097E+02
 0.31036954685E+02 0.31552564320E+02 0.31938244063E+02 0.32193006123E+02 0.32331676791E+02
 0.32382489942E+02 0.32381308876E+02 0.32363316066E+02 0.32354184435E+02 0.32363316066E+02
 0.32381308876E+02 0.32382489942E+02 0.32331676791E+02 0.32193006123E+02 0.31938244063E+02
 0.31552564320E+02 0.31036954685E+02 0.30407532097E+02 0.29692617379E+02 0.28928410557E+02
 0.28153874842E+02 0.27405359410E+02 0.26711645939E+02 0.26090278730E+02 0.25545982672E+02
 0.25071606451E+02 0.24651446682E+02 0.24266193986E+02 0.23898298497E+02 0.23536456467E+02
 0.23178229227E+02 0.22830392961E+02 0.22507233812E+02 0.22227437779E+02 0.22010402407E+02
 0.21872744258E+02 0.17779488342E+02 0.17837837780E+02 0.18010712298E+02 0.18291763148E+02
 0.18671113862E+02 0.19136748299E+02 0.19676763244E+02 0.20282219683E+02 0.20949881061E+02
 0.21683867826E+02 0.22495367009E+02 0.23400040921E+02 0.24413513899E+02 0.25545982672E+02
 0.26797317536E+02 0.28153874842E+02 0.29587697923E+02 0.31058079515E+02 0.32514923604E+02
 0.33903245753E+02 0.35168471965E+02 0.36262544448E+02 0.37150690559E+02 0.37817869774E+02
 0.38272834402E+02 0.38547317500E+02 0.38688823421E+02 0.38747803177E+02 0.38762680773E+02
 0.38747803177E+02 0.38688823421E+02 0.38547317500E+02 0.38272834402E+02 0.37817869774E+02
 0.37150690559E+02 0.36262544448E+02 0.35168471965E+02 0.33903245753E+02 0.32514923604E+02
 0.31058079515E+02 0.29587697923E+02 0.28153874842E+02 0.26797317536E+02 0.25545982672E+02
 0.24413513899E+02 0.23400040921E+02 0.22495367009E+02 0.21683867826E+02 0.20949881061E+02
 0.20282219683E+02 0.19676763244E+02 0.19136748299E+02 0.18671113862E+02 0.18291763148E+02
 0.18010712298E+02 0.17837837780E+02 0.14477492149E+02 0.14542227084E+02 0.14735624036E+02
 0.15055234562E+02 0.15497072773E+02 0.16056244006E+02 0.16728392542E+02 0.17511846247E+02
 0.18409816087E+02 0.19431675319E+02 0.20592414157E+02 0.21909865394E+02 0.23400040921E+02
 0.25071606451E+02 0.26920861117E+02 0.28928410557E+02 0.31058079515E+02 0.33257842865E+02
 0.35462177898E+02 0.37595580099E+02 0.39577783920E+02 0.41331675366E+02 0.42794172620E+02
 0.43928407365E+02 0.44733283532E+02 0.45245446587E+02 0.45530143934E+02 0.45661510705E+02
 0.45697926962E+02 0.45661510705E+02 0.45530143934E+02 0.45245446587E+02 0.44733283532E+02
 0.43928407365E+02 0.42794172620E+02 0.41331675366E+02 0.39577783920E+02 0.37595580099E+02
 0.35462177898E+02 0.33257842865E+02 0.31058079515E+02 0.28928410557E+02 0.26920861117E+02
 0.25071606451E+02 0.23400040921E+02 0.21909865394E+02 0.20592414157E+02 0.19431675319E+02
 0.18409816087E+02 0.17511846247E+02 0.16728392542E+02 0.16056244006E+02 0.15497072773E+02
 0.15055234562E+02 0.14735624036E+02 0.14542227084E+02 0.11824728957E+02 0.11892186149E+02
 0.12094851799E+02 0.12433502059E+02 0.12909258047E+02 0.13523830328E+02 0.14280473816E+02
 0.15185587703E+02 0.16250388028E+02 0.17491741667E+02 0.18931287481E+02 0.20592414157E+02
 0.22495367009E+02 0.24651446682E+02 0.27057617389E+02 0.29692617379E+02 0.32514923604E+02
 0.35462177898E+02 0.38451641022E+02 0.41382178851E+02 0.44139580305E+02 0.46607402619E+02
 0.48684031071E+02 0.50303295642E+02 0.51452167346E+02 0.52177008799E+02 0.52571757871E+02
 0.52747809174E+02 0.52794739336E+02 0.52747809174E+02 0.52571757871E+02 0.52177008799E+02
 0.51452167346E+02 0.50303295642E+02 0.48684031071E+02 0.46607402619E+02 0.44139580305E+02
 0.41382178851E+02 0.38451641022E+02 0.35462177898E+02 0.32514923604E+02 0.29692617379E+02
 0.27057617389E+02 0.24651446682E+02 0.22495367009E+02 0.20592414157E+02 0.18931287481E+02
 0.17491741667E+02 0.16250388028E+02 0.15185587703E+02 0.14280473816E+02 0.13523830328E+02
 0.12909258047E+02 0.12433502059E+02 0.12094851799E+02 0.11892186149E+02 0.97172642246E+01
 0.97849661909E+01 0.99892334887E+01 0.10333431252E+02 0.10822934934E+02 0.11465235142E+02
 0.12270638032E+02 0.13253506564E+02 0.14433534064E+02 0.15836223619E+02 0.17491741667E+02
 0.19431675319E+02 0.21683867826E+02 0.24266193986E+02 0.27180486913E+02 0.30407532097E+02
 0.33903245753E+02 0.37595580099E+02 0.41382178851E+02 0.45130427387E+02 0.48683259827E+02
 0.51874290128E+02 0.54553396013E+02 0.56618904480E+02 0.58041991563E+02 0.58847026598E+02
 0.59167469185E+02 0.59224510509E+02 0.59217122315E+02 0.59224510509E+02 0.59167469185E+02
 0.58847026598E+02 0.58041991563E+02 0.56618904480E+02 0.54553396013E+02 0.51874290128E+02
 0.48683259827E+02 0.45130427387E+02 0.41382178851E+02 0.37595580099E+02 0.33903245753E+02
 0.30407532097E+02 0.27180486913E+02 0.24266193986E+02 0.21683867826E+02 0.19431675319E+02
 0.17491741667E+02 0.15836223619E+02 0.14433534064E+02 0.13253506564E+02 0.12270638032E+02
 0.11465235142E+02 0.10822934934E+02 0.10333431252E+02 0.99892334887E+01 0.97849661909E+01
 0.80558001635E+01 0.81222893338E+01 0.83235659594E+01 0.86649643980E+01 0.91552041194E+01
 0.98065142621E+01 0.10635262580E+02 0.11663025501E+02 0.12917646590E+02 0.14433534064E+02
 0.16250388028E+02 0.18409816087E+02 0.20949881061E+02 0.23898298497E+02 0.27265317974E+02
 0.31036954685E+02 0.35168471965E+02 0.39577783920E+02 0.44139580305E+02 0.48683259827E+02
 0.52999785975E+02 0.56862553411E+02 0.60063528469E+02 0.62392850947E+02 0.63674748824E+02
 0.64001864123E+02 0.63720153272E+02 0.63289905709E+02 0.63096640397E+02 0.63289905709E+02
 0.63720153272E+02 0.64001864123E+02 0.63674748824E+02 0.62392850947E+02 0.60063528469E+02
 0.56862553411E+02 0.52999785975E+02 0.48683259827E+02 0.44139580305E+02 0.39577783920E+02
 0.35168471965E+02 0.31036954685E+02 0.27265317974E+02 0.23898298497E+02 0.20949881061E+02
 0.18409816087E+02 0.16250388028E+02 0.14433534064E+02 0.12917646590E+02 0.11663025501E+02
 0.10635262580E+02 0.98065142621E+01 0.91552041194E+01 0.86649643980E+01 0.83235659594E+01
 0.81222893338E+01 0.67535726563E+01 0.68181574909E+01 0.70141693053E+01 0.73483338857E+01
 0.78318196255E+01 0.84804799575E+01 0.93155435794E+01 0.10364678528E+02 0.11663025501E+02
 0.13253506564E+02 0.15185587703E+02 0.17511846247E+02 0.20282219683E+02 0.23536456467E+02
 0.27295553850E+02 0.31552564320E+02 0.36262544448E+02 0.41331675366E+02 0.46607402619E+02
 0.51874290128E+02 0.56862553411E+02 0.61273528060E+02 0.64684499976E+02 0.66613891289E+02
 0.66932843552E+02 0.65958620441E+02 0.64368763515E+02 0.62973967388E+02 0.62426064915E+02
 0.62973967388E+02 0.64368763515E+02 0.65958620441E+02 0.66932843552E+02 0.66613891289E+02
 0.64684499976E+02 0.61273528060E+02 0.56862553411E+02 0.51874290128E+02 0.46607402619E+02
 0.41331675366E+02 0.36262544448E+02 0.31552564320E+02 0.27295553850E+02 0.23536456467E+02
 0.20282219683E+02 0.17511846247E+02 0.15185587703E+02 0.13253506564E+02 0.11663025501E+02
 0.10364678528E+02 0.93155435794E+01 0.84804799575E+01 0.78318196255E+01 0.73483338857E+01
 0.70141693053E+01 0.68181574909E+01 0.57395245776E+01 0.58020254219E+01 0.59920654716E+01
 0.63172659965E+01 0.67904462329E+01 0.74300335790E+01 0.82608994605E+01 0.93155435794E+01
 0.10635262580E+02 0.12270638032E+02 0.14280473816E+02 0.16728392542E+02 0.19676763244E+02
 0.23178229227E+02 0.27265317974E+02 0.31938244063E+02 0.37150690559E+02 0.42794172620E+02
 0.48684031071E+02 0.54553396013E+02 0.60063528469E+02 0.64684499976E+02 0.67587751297E+02
 0.68227040937E+02 0.66621621759E+02 0.63418819467E+02 0.59744733156E+02 0.56868320682E+02
 0.55784196716E+02 0.56868320682E+02 0.59744733156E+02 0.63418819467E+02 0.66621621759E+02
 0.68227040937E+02 0.67587751297E+02 0.64684499976E+02 0.60063528469E+02 0.54553396013E+02
 0.48684031071E+02 0.42794172620E+02 0.37150690559E+02 0.31938244063E+02 0.27265317974E+02
 0.23178229227E+02 0.19676763244E+02 0.16728392542E+02 0.14280473816E+02 0.12270638032E+02
 0.10635262580E+02 0.93155435794E+01 0.82608994605E+01 0.74300335790E+01 0.67904462329E+01
 0.63172659965E+01 0.59920654716E+01 0.58020254219E+01 0.49581405726E+01 0.50186805527E+01
 0.52029915739E+01 0.55192083008E+01 0.59811609230E+01 0.66089631583E+01 0.74300335790E+01
 0.84804799575E+01 0.98065142621E+01 0.11465235142E+02 0.13523830328E+02 0.16056244006E+02
 0.19136748299E+02 0.22830392961E+02 0.27180486913E+02 0.32193006123E+02 0.37817869774E+02
 0.43928407365E+02 0.50303295642E+02 0.56618904480E+02 0.62392850947E+02 0.66613891289E+02
 0.68227040937E+02 0.66692803540E+02 0.62250883567E+02 0.55967572800E+02 0.49511866217E+02
 0.44695682619E+02 0.42915535220E+02 0.44695682619E+02 0.49511866217E+02 0.55967572800E+02
 0.62250883567E+02 0.66692803540E+02 0.68227040937E+02 0.66613891289E+02 0.62392850947E+02
 0.56618904480E+02 0.50303295642E+02 0.43928407365E+02 0.37817869774E+02 0.32193006123E+02
 0.27180486913E+02 0.22830392961E+02 0.19136748299E+02 0.16056244006E+02 0.13523830328E+02
 0.11465235142E+02 0.98065142621E+01 0.84804799575E+01 0.74300335790E+01 0.66089631583E+01
 0.59811609230E+01 0.55192083008E+01 0.52029915739E+01 0.50186805527E+01 0.43674635083E+01
 0.44263217456E+01 0.46056586440E+01 0.49138647151E+01 0.53653243544E+01 0.59811609230E+01
 0.67904462329E+01 0.78318196255E+01 0.91552041194E+01 0.10822934934E+02 0.12909258047E+02
 0.15497072773E+02 0.18671113862E+02 0.22507233812E+02 0.27057617389E+02 0.32331676791E+02
 0.38272834402E+02 0.44733283532E+02 0.51452167346E+02 0.58041991563E+02 0.63674748824E+02
 0.66932843552E+02 0.66621621759E+02 0.62250883567E+02 0.54330004002E+02 0.44395882130E+02
 0.34709352859E+02 0.27665859907E+02 0.25090703156E+02 0.27665859907E+02 0.34709352859E+02
 0.44395882130E+02 0.54330004002E+02 0.62250883567E+02 0.66621621759E+02 0.66932843552E+02
 0.63674748824E+02 0.58041991563E+02 0.51452167346E+02 0.44733283532E+02 0.38272834402E+02
 0.32331676791E+02 0.27057617389E+02 0.22507233812E+02 0.18671113862E+02 0.15497072773E+02
 0.12909258047E+02 0.10822934934E+02 0.91552041194E+01 0.78318196255E+01 0.67904462329E+01
 0.59811609230E+01 0.53653243544E+01 0.49138647151E+01 0.46056586440E+01 0.44263217456E+01
 0.39365919906E+01 0.39941164284E+01 0.41694786739E+01 0.44711775028E+01 0.49138647151E+01
 0.55192083008E+01 0.63172659965E+01 0.73483338857E+01 0.86649643980E+01 0.10333431252E+02
 0.12433502059E+02 0.15055234562E+02 0.18291763148E+02 0.22227437779E+02 0.26920861117E+02
 0.32382489942E+02 0.38547317500E+02 0.45245446587E+02 0.52177008799E+02 0.58847026598E+02
 0.64001864123E+02 0.65958620441E+02 0.63418819467E+02 0.55967572800E+02 0.44395882130E+02
 0.30707849213E+02 0.17740438473E+02 0.84515522924E+01 0.50776380184E+01 0.84515522924E+01
 0.17740438473E+02 0.30707849213E+02 0.44395882130E+02 0.55967572800E+02 0.63418819467E+02
 0.65958620441E+02 0.64001864123E+02 0.58847026598E+02 0.52177008799E+02 0.45245446587E+02
 0.38547317500E+02 0.32382489942E+02 0.26920861117E+02 0.22227437779E+02 0.18291763148E+02
 0.15055234562E+02 0.12433502059E+02 0.10333431252E+02 0.86649643980E+01 0.73483338857E+01
 0.63172659965E+01 0.55192083008E+01 0.49138647151E+01 0.44711775028E+01 0.41694786739E+01
 0.39941164284E+01 0.36434700519E+01 0.37000345080E+01 0.38725249419E+01 0.41694786739E+01
 0.46056586440E+01 0.52029915739E+01 0.59920654716E+01 0.70141693053E+01 0.83235659594E+01
 0.99892334887E+01 0.12094851799E+02 0.14735624036E+02 0.18010712298E+02 0.22010402407E+02
 0.26797317536E+02 0.32381308876E+02 0.38688823421E+02 0.45530143934E+02 0.52571757871E+02
 0.59167469185E+02 0.63720153272E+02 0.64368763515E+02 0.59744733156E+02 0.49511866217E+02
 0.34709352859E+02 0.17740438473E+02 0.19279810752E+01 -.92989547412E+01 -.13360788000E+02
 -.92989547412E+01 0.19279810752E+01 0.17740438473E+02 0.34709352859E+02 0.49511866217E+02
 0.59744733156E+02 0.64368763515E+02 0.63720153272E+02 0.59167469185E+02 0.52571757871E+02
 0.45530143934E+02 0.38688823421E+02 0.32381308876E+02 0.26797317536E+02 0.22010402407E+02
 0.18010712298E+02 0.14735624036E+02 0.12094851799E+02 0.99892334887E+01 0.83235659594E+01
 0.70141693053E+01 0.59920654716E+01 0.52029915739E+01 0.46056586440E+01 0.41694786739E+01
 0.38725249419E+01 0.37000345080E+01 0.34732879066E+01 0.35292747114E+01 0.37000345080E+01
 0.39941164284E+01 0.44263217456E+01 0.50186805527E+01 0.58020254219E+01 0.68181574909E+01
 0.81222893338E+01 0.97849661909E+01 0.11892186149E+02 0.14542227084E+02 0.17837837780E+02
 0.21872744258E+02 0.26711645939E+02 0.32363316066E+02 0.38747803177E+02 0.45661510705E+02
 0.52747809174E+02 0.59224510509E+02 0.63289905709E+02 0.62973967388E+02 0.56868320682E+02
 0.44695682619E+02 0.27665859907E+02 0.84515522924E+01 -.92989547412E+01 -.21842391184E+02
 -.26370903132E+02 -.21842391184E+02 -.92989547412E+01 0.84515522924E+01 0.27665859907E+02
 0.44695682619E+02 0.56868320682E+02 0.62973967388E+02 0.63289905709E+02 0.59224510509E+02
 0.52747809174E+02 0.45661510705E+02 0.38747803177E+02 0.32363316066E+02 0.26711645939E+02
 0.21872744258E+02 0.17837837780E+02 0.14542227084E+02 0.11892186149E+02 0.97849661909E+01
 0.81222893338E+01 0.68181574909E+01 0.58020254219E+01 0.50186805527E+01 0.44263217456E+01
 0.39941164284E+01 0.37000345080E+01 0.35292747114E+01 0.34174938436E+01 0.34732879066E+01
 0.36434700519E+01 0.39365919906E+01 0.43674635083E+01 0.49581405726E+01 0.57395245776E+01
 0.67535726563E+01 0.80558001635E+01 0.97172642246E+01 0.11824728957E+02 0.14477492149E+02
 0.17779488342E+02 0.21825562112E+02 0.26681035989E+02 0.32354184435E+02 0.38762680773E+02
 0.45697926962E+02 0.52794739336E+02 0.59217122315E+02 0.63096640397E+02 0.62426064915E+02
 0.55784196716E+02 0.42915535220E+02 0.25090703156E+02 0.50776380184E+01 -.13360788000E+02
 -.26370903132E+02 -.31064741520E+02 -.26370903132E+02 -.13360788000E+02 0.50776380184E+01
 0.25090703156E+02 0.42915535220E+02 0.55784196716E+02 0.62426064915E+02 0.63096640397E+02
 0.59217122315E+02 0.52794739336E+02 0.45697926962E+02 0.38762680773E+02 0.32354184435E+02
 0.26681035989E+02 0.21825562112E+02 0.17779488342E+02 0.14477492149E+02 0.11824728957E+02
 0.97172642246E+01 0.80558001635E+01 0.67535726563E+01 0.57395245776E+01 0.49581405726E+01