   8   8   0   0
  0.2002393E+02  0.5431000E-09  0.5431000E-09  0.5431000E-09  0.1000000E-14
  1.000000000000000E-004
  CAR 
 diamond Si                              
     11.90168443     -7.19325525  301      5.95086577      1.00000000
     -7.193  0.0000E+00  0.0000E+00
     -7.130  0.0000E+00  0.0000E+00
     -7.066  0.0000E+00  0.0000E+00
     -7.002  0.0000E+00  0.0000E+00
     -6.939  0.0000E+00  0.0000E+00
     -6.875  0.0000E+00  0.0000E+00
     -6.811  0.0000E+00  0.0000E+00
     -6.748  0.6698E-17  0.4263E-18
     -6.684  0.5899E-14  0.3759E-15
     -6.620  0.2506E-11  0.1599E-12
     -6.557  0.5004E-09  0.3201E-10
     -6.493  0.4782E-07  0.3076E-08
     -6.429  0.2237E-05  0.1455E-06
     -6.366  0.5244E-04  0.3483E-05
     -6.302  0.6316E-03  0.4368E-04
     -6.239  0.4023E-02  0.2998E-03
     -6.175  0.1425E-01  0.1207E-02
     -6.111  0.3127E-01  0.3197E-02
     -6.048  0.5013E-01  0.6388E-02
     -5.984  0.6521E-01  0.1054E-01
     -5.920  0.7484E-01  0.1530E-01
     -5.857  0.8760E-01  0.2088E-01
     -5.793  0.9944E-01  0.2721E-01
     -5.729  0.1047E+00  0.3387E-01
     -5.666  0.1076E+00  0.4072E-01
     -5.602  0.1177E+00  0.4821E-01
     -5.538  0.1367E+00  0.5692E-01
     -5.475  0.1431E+00  0.6603E-01
     -5.411  0.1328E+00  0.7448E-01
     -5.347  0.1324E+00  0.8291E-01
     -5.284  0.1588E+00  0.9302E-01
     -5.220  0.1788E+00  0.1044E+00
     -5.156  0.1746E+00  0.1155E+00
     -5.093  0.1647E+00  0.1260E+00
     -5.029  0.1727E+00  0.1370E+00
     -4.966  0.1841E+00  0.1487E+00
     -4.902  0.1854E+00  0.1605E+00
     -4.838  0.2003E+00  0.1733E+00
     -4.775  0.2288E+00  0.1878E+00
     -4.711  0.2329E+00  0.2026E+00
     -4.647  0.2118E+00  0.2161E+00
     -4.584  0.1980E+00  0.2287E+00
     -4.520  0.2066E+00  0.2419E+00
     -4.456  0.2417E+00  0.2573E+00
     -4.393  0.2857E+00  0.2754E+00
     -4.329  0.2888E+00  0.2938E+00
     -4.265  0.2585E+00  0.3103E+00
     -4.202  0.2629E+00  0.3270E+00
     -4.138  0.2908E+00  0.3455E+00
     -4.074  0.2963E+00  0.3644E+00
     -4.011  0.3056E+00  0.3838E+00
     -3.947  0.3347E+00  0.4051E+00
     -3.883  0.3694E+00  0.4286E+00
     -3.820  0.4209E+00  0.4554E+00
     -3.756  0.4511E+00  0.4841E+00
     -3.693  0.3913E+00  0.5091E+00
     -3.629  0.3110E+00  0.5288E+00
     -3.565  0.3324E+00  0.5500E+00
     -3.502  0.3748E+00  0.5739E+00
     -3.438  0.3300E+00  0.5949E+00
     -3.374  0.2929E+00  0.6135E+00
     -3.311  0.3101E+00  0.6333E+00
     -3.247  0.3387E+00  0.6548E+00
     -3.183  0.3719E+00  0.6785E+00
     -3.120  0.3604E+00  0.7014E+00
     -3.056  0.2871E+00  0.7197E+00
     -2.992  0.2070E+00  0.7329E+00
     -2.929  0.1705E+00  0.7437E+00
     -2.865  0.1722E+00  0.7547E+00
     -2.801  0.2119E+00  0.7682E+00
     -2.738  0.2881E+00  0.7865E+00
     -2.674  0.3247E+00  0.8072E+00
     -2.610  0.2833E+00  0.8252E+00
     -2.547  0.2171E+00  0.8390E+00
     -2.483  0.1484E+00  0.8485E+00
     -2.420  0.9686E-01  0.8546E+00
     -2.356  0.7792E-01  0.8596E+00
     -2.292  0.7841E-01  0.8646E+00
     -2.229  0.8700E-01  0.8701E+00
     -2.165  0.9500E-01  0.8762E+00
     -2.101  0.1043E+00  0.8828E+00
     -2.038  0.1163E+00  0.8902E+00
     -1.974  0.1163E+00  0.8976E+00
     -1.910  0.9233E-01  0.9035E+00
     -1.847  0.6386E-01  0.9076E+00
     -1.783  0.5127E-01  0.9108E+00
     -1.719  0.5021E-01  0.9140E+00
     -1.656  0.5673E-01  0.9176E+00
     -1.592  0.6607E-01  0.9218E+00
     -1.528  0.1022E+00  0.9283E+00
     -1.465  0.2292E+00  0.9429E+00
     -1.401  0.3894E+00  0.9677E+00
     -1.337  0.3945E+00  0.9928E+00
     -1.274  0.2887E+00  0.1011E+01
     -1.210  0.2715E+00  0.1028E+01
     -1.147  0.3835E+00  0.1053E+01
     -1.083  0.5360E+00  0.1087E+01
     -1.019  0.6074E+00  0.1126E+01
     -0.956  0.5867E+00  0.1163E+01
     -0.892  0.5016E+00  0.1195E+01
     -0.828  0.4006E+00  0.1220E+01
     -0.765  0.4180E+00  0.1247E+01
     -0.701  0.4803E+00  0.1278E+01
     -0.637  0.3932E+00  0.1303E+01
     -0.574  0.2256E+00  0.1317E+01
     -0.510  0.1796E+00  0.1328E+01
     -0.446  0.2567E+00  0.1345E+01
     -0.383  0.3194E+00  0.1365E+01
     -0.319  0.2780E+00  0.1383E+01
     -0.255  0.1944E+00  0.1395E+01
     -0.192  0.1476E+00  0.1405E+01
     -0.128  0.1580E+00  0.1415E+01
     -0.064  0.2573E+00  0.1431E+01
     -0.001  0.3419E+00  0.1453E+01
      0.063  0.2818E+00  0.1471E+01
      0.126  0.1594E+00  0.1481E+01
      0.190  0.9015E-01  0.1487E+01
      0.254  0.8931E-01  0.1492E+01
      0.317  0.1397E+00  0.1501E+01
      0.381  0.2160E+00  0.1515E+01
      0.445  0.2334E+00  0.1530E+01
      0.508  0.1597E+00  0.1540E+01
      0.572  0.1062E+00  0.1547E+01
      0.636  0.9274E-01  0.1553E+01
      0.699  0.8322E-01  0.1558E+01
      0.763  0.1156E+00  0.1565E+01
      0.827  0.1968E+00  0.1578E+01
      0.890  0.2252E+00  0.1592E+01
      0.954  0.1520E+00  0.1602E+01
      1.018  0.7424E-01  0.1606E+01
      1.081  0.4836E-01  0.1610E+01
      1.145  0.5335E-01  0.1613E+01
      1.209  0.7069E-01  0.1617E+01
      1.272  0.1165E+00  0.1625E+01
      1.336  0.2088E+00  0.1638E+01
      1.399  0.2815E+00  0.1656E+01
      1.463  0.3232E+00  0.1677E+01
      1.527  0.3996E+00  0.1702E+01
      1.590  0.4714E+00  0.1732E+01
      1.654  0.4760E+00  0.1762E+01
      1.718  0.4532E+00  0.1791E+01
      1.781  0.4957E+00  0.1823E+01
      1.845  0.5781E+00  0.1860E+01
      1.909  0.5800E+00  0.1896E+01
      1.972  0.4953E+00  0.1928E+01
      2.036  0.4103E+00  0.1954E+01
      2.100  0.3693E+00  0.1978E+01
      2.163  0.4060E+00  0.2003E+01
      2.227  0.4831E+00  0.2034E+01
      2.291  0.5130E+00  0.2067E+01
      2.354  0.5090E+00  0.2099E+01
      2.418  0.5253E+00  0.2133E+01
      2.482  0.5291E+00  0.2166E+01
      2.545  0.5147E+00  0.2199E+01
      2.609  0.4984E+00  0.2231E+01
      2.672  0.4811E+00  0.2261E+01
      2.736  0.5242E+00  0.2295E+01
      2.800  0.6195E+00  0.2334E+01
      2.863  0.6921E+00  0.2378E+01
      2.927  0.7136E+00  0.2424E+01
      2.991  0.6906E+00  0.2468E+01
      3.054  0.6779E+00  0.2511E+01
      3.118  0.6714E+00  0.2554E+01
      3.182  0.6331E+00  0.2594E+01
      3.245  0.5857E+00  0.2631E+01
      3.309  0.5911E+00  0.2669E+01
      3.373  0.6784E+00  0.2712E+01
      3.436  0.7391E+00  0.2759E+01
      3.500  0.6613E+00  0.2801E+01
      3.564  0.5312E+00  0.2835E+01
      3.627  0.4981E+00  0.2867E+01
      3.691  0.5741E+00  0.2903E+01
      3.755  0.6400E+00  0.2944E+01
      3.818  0.6452E+00  0.2985E+01
      3.882  0.5945E+00  0.3023E+01
      3.945  0.5378E+00  0.3057E+01
      4.009  0.5148E+00  0.3090E+01
      4.073  0.4919E+00  0.3121E+01
      4.136  0.5225E+00  0.3154E+01
      4.200  0.6095E+00  0.3193E+01
      4.264  0.6145E+00  0.3232E+01
      4.327  0.5152E+00  0.3265E+01
      4.391  0.4217E+00  0.3292E+01
      4.455  0.4005E+00  0.3317E+01
      4.518  0.4485E+00  0.3346E+01
      4.582  0.4754E+00  0.3376E+01
      4.646  0.3910E+00  0.3401E+01
      4.709  0.2789E+00  0.3419E+01
      4.773  0.2346E+00  0.3434E+01
      4.837  0.2307E+00  0.3448E+01
      4.900  0.2238E+00  0.3463E+01
      4.964  0.2301E+00  0.3477E+01
      5.028  0.2247E+00  0.3492E+01
      5.091  0.1752E+00  0.3503E+01
      5.155  0.1404E+00  0.3512E+01
      5.218  0.1350E+00  0.3520E+01
      5.282  0.1187E+00  0.3528E+01
      5.346  0.1049E+00  0.3535E+01
      5.409  0.1040E+00  0.3541E+01
      5.473  0.9192E-01  0.3547E+01
      5.537  0.6426E-01  0.3551E+01
      5.600  0.3736E-01  0.3554E+01
      5.664  0.2020E-01  0.3555E+01
      5.728  0.9003E-02  0.3555E+01
      5.791  0.2434E-02  0.3556E+01
      5.855  0.3384E-03  0.3556E+01
      5.919  0.2302E-04  0.3556E+01
      5.982  0.1472E-05  0.3556E+01
      6.046  0.2258E-04  0.3556E+01
      6.110  0.3351E-03  0.3556E+01
      6.173  0.2407E-02  0.3556E+01
      6.237  0.8663E-02  0.3556E+01
      6.301  0.1751E-01  0.3557E+01
      6.364  0.3003E-01  0.3559E+01
      6.428  0.6514E-01  0.3563E+01
      6.491  0.1181E+00  0.3571E+01
      6.555  0.1410E+00  0.3580E+01
      6.619  0.1380E+00  0.3589E+01
      6.682  0.1515E+00  0.3598E+01
      6.746  0.1771E+00  0.3610E+01
      6.810  0.1900E+00  0.3622E+01
      6.873  0.1801E+00  0.3633E+01
      6.937  0.1918E+00  0.3645E+01
      7.001  0.2664E+00  0.3662E+01
      7.064  0.3223E+00  0.3683E+01
      7.128  0.3111E+00  0.3703E+01
      7.192  0.2780E+00  0.3720E+01
      7.255  0.2799E+00  0.3738E+01
      7.319  0.3588E+00  0.3761E+01
      7.383  0.4314E+00  0.3788E+01
      7.446  0.4233E+00  0.3815E+01
      7.510  0.3951E+00  0.3841E+01
      7.573  0.4190E+00  0.3867E+01
      7.637  0.4741E+00  0.3897E+01
      7.701  0.5346E+00  0.3931E+01
      7.764  0.6251E+00  0.3971E+01
      7.828  0.7042E+00  0.4016E+01
      7.892  0.7358E+00  0.4063E+01
      7.955  0.7658E+00  0.4112E+01
      8.019  0.7603E+00  0.4160E+01
      8.083  0.6581E+00  0.4202E+01
      8.146  0.5748E+00  0.4238E+01
      8.210  0.6068E+00  0.4277E+01
      8.274  0.6460E+00  0.4318E+01
      8.337  0.5701E+00  0.4355E+01
      8.401  0.4686E+00  0.4384E+01
      8.465  0.4727E+00  0.4414E+01
      8.528  0.5223E+00  0.4448E+01
      8.592  0.5433E+00  0.4482E+01
      8.656  0.5475E+00  0.4517E+01
      8.719  0.5354E+00  0.4551E+01
      8.783  0.5017E+00  0.4583E+01
      8.846  0.5609E+00  0.4619E+01
      8.910  0.7906E+00  0.4669E+01
      8.974  0.9949E+00  0.4732E+01
      9.037  0.9629E+00  0.4794E+01
      9.101  0.7950E+00  0.4844E+01
      9.165  0.6821E+00  0.4888E+01
      9.228  0.6614E+00  0.4930E+01
      9.292  0.7047E+00  0.4975E+01
      9.356  0.7619E+00  0.5023E+01
      9.419  0.7774E+00  0.5073E+01
      9.483  0.7268E+00  0.5119E+01
      9.547  0.6300E+00  0.5159E+01
      9.610  0.5636E+00  0.5195E+01
      9.674  0.5480E+00  0.5230E+01
      9.738  0.5147E+00  0.5263E+01
      9.801  0.4569E+00  0.5292E+01
      9.865  0.3991E+00  0.5317E+01
      9.929  0.3859E+00  0.5342E+01
      9.992  0.4190E+00  0.5368E+01
     10.056  0.4401E+00  0.5396E+01
     10.119  0.4173E+00  0.5423E+01
     10.183  0.3830E+00  0.5447E+01
     10.247  0.3943E+00  0.5472E+01
     10.310  0.3993E+00  0.5498E+01
     10.374  0.3085E+00  0.5517E+01
     10.438  0.1946E+00  0.5530E+01
     10.501  0.1251E+00  0.5538E+01
     10.565  0.8774E-01  0.5543E+01
     10.629  0.6436E-01  0.5547E+01
     10.692  0.4460E-01  0.5550E+01
     10.756  0.3032E-01  0.5552E+01
     10.820  0.2155E-01  0.5554E+01
     10.883  0.1628E-01  0.5555E+01
     10.947  0.1017E-01  0.5555E+01
     11.011  0.4140E-02  0.5555E+01
     11.074  0.9567E-03  0.5556E+01
     11.138  0.1136E-03  0.5556E+01
     11.202  0.6507E-05  0.5556E+01
     11.265  0.1743E-06  0.5556E+01
     11.329  0.2146E-08  0.5556E+01
     11.392  0.1204E-10  0.5556E+01
     11.456  0.3061E-13  0.5556E+01
     11.520  0.3495E-16  0.5556E+01
     11.583  0.0000E+00  0.5556E+01
     11.647  0.0000E+00  0.5556E+01
     11.711  0.0000E+00  0.5556E+01
     11.774  0.0000E+00  0.5556E+01
     11.838  0.0000E+00  0.5556E+01
     11.902  0.0000E+00  0.5556E+01
