 vasp.5.4.1 05Feb16 (build Feb 24 2020 14:33:01) complex                        
  
 executed on           IFC91_ompi date 2020.02.27  21:54:19
 running on   40 total cores
 distrk:  each k-point on   40 cores,    1 groups
 distr:  one band on NCORES_PER_BAND=   8 cores,    5 groups


--------------------------------------------------------------------------------------------------------


 INCAR:
 POTCAR:    PAW_PBE Si 05Jan2001                  
 POTCAR:    PAW_PBE Si 05Jan2001                  
   VRHFIN =Si: s2p2                                                             
   LEXCH  = PE                                                                  
   EATOM  =   103.0669 eV,    7.5752 Ry                                         
                                                                                
   TITEL  = PAW_PBE Si 05Jan2001                                                
   LULTRA =        F    use ultrasoft PP ?                                      
   IUNSCR =        1    unscreen: 0-lin 1-nonlin 2-no                           
   RPACOR =    1.500    partial core radius                                     
   POMASS =   28.085; ZVAL   =    4.000    mass and valenz                      
   RCORE  =    1.900    outmost cutoff radius                                   
   RWIGS  =    2.480; RWIGS  =    1.312    wigner-seitz radius (au A)           
   ENMAX  =  245.345; ENMIN  =  184.009 eV                                      
   ICORE  =        2    local potential                                         
   LCOR   =        T    correct aug charges                                     
   LPAW   =        T    paw PP                                                  
   EAUG   =  322.069                                                            
   DEXC   =    0.000                                                            
   RMAX   =    1.950    core radius for proj-oper                               
   RAUG   =    1.300    factor for augmentation sphere                          
   RDEP   =    1.993    radius for radial grids                                 
   RDEPT  =    1.837    core radius for aug-charge                              
                                                                                
   Atomic configuration                                                         
    6 entries                                                                   
     n  l   j            E        occ.                                          
     1  0  0.50     -1785.8828   2.0000                                         
     2  0  0.50      -139.4969   2.0000                                         
     2  1  1.50       -95.5546   6.0000                                         
     3  0  0.50       -10.8127   2.0000                                         
     3  1  0.50        -4.0811   2.0000                                         
     3  2  1.50        -4.0817   0.0000                                         
   Description                                                                  
     l       E           TYP  RCUT    TYP  RCUT                                 
     0    -10.8127223     23  1.900                                             
     0     -7.6451159     23  1.900                                             
     1     -4.0811372     23  1.900                                             
     1      2.4879257     23  1.900                                             
     2     -4.0817478      7  1.900                                             
  local pseudopotential read in
  partial core-charges read in
  partial kinetic energy density read in
  atomic valenz-charges read in
  non local Contribution for L=           0  read in
    real space projection operators read in
  non local Contribution for L=           0  read in
    real space projection operators read in
  non local Contribution for L=           1  read in
    real space projection operators read in
  non local Contribution for L=           1  read in
    real space projection operators read in
    PAW grid and wavefunctions read in
 
   number of l-projection  operators is LMAX  =           4
   number of lm-projection operators is LMMAX =           8
 
  PAW_PBE Si 05Jan2001                  :
 energy of atom  1       EATOM= -103.0669
 kinetic energy error for atom=    0.0061 (will be added to EATOM!!)
 
 
 POSCAR: Si dia                                  
  positions in direct lattice
  No initial velocities read in
 exchange correlation table for  LEXCH =        8
   RHO(1)=    0.500       N(1)  =     2000
   RHO(2)=  100.500       N(2)  =     4000
 


--------------------------------------------------------------------------------------------------------


 ion  position               nearest neighbor table
   1  0.000  0.000  0.000-   5 2.35   6 2.35   7 2.35   8 2.35
   2  0.000  0.500  0.500-   5 2.35   6 2.35   7 2.35   8 2.35
   3  0.500  0.000  0.500-   5 2.35   6 2.35   7 2.35   8 2.35
   4  0.500  0.500  0.000-   5 2.35   6 2.35   7 2.35   8 2.35
   5  0.250  0.250  0.250-   1 2.35   2 2.35   3 2.35   4 2.35
   6  0.750  0.750  0.250-   1 2.35   2 2.35   3 2.35   4 2.35
   7  0.750  0.250  0.750-   1 2.35   2 2.35   3 2.35   4 2.35
   8  0.250  0.750  0.750-   1 2.35   2 2.35   3 2.35   4 2.35
 
  LATTYP: Found a simple cubic cell.
 ALAT       =     5.4310000000
  
  Lattice vectors:
  
 A1 = (   5.4310000000,   0.0000000000,   0.0000000000)
 A2 = (   0.0000000000,   5.4310000000,   0.0000000000)
 A3 = (   0.0000000000,   0.0000000000,   5.4310000000)


Analysis of symmetry for initial positions (statically):
=====================================================================
 Subroutine PRICEL returns following result:
 
  LATTYP: Found a face centered cubic cell.
 ALAT       =     5.4310000000
  
  Lattice vectors:
  
 A1 = (   2.7155000000,   2.7155000000,   0.0000000000)
 A2 = (   2.7155000000,   0.0000000000,  -2.7155000000)
 A3 = (   0.0000000000,   2.7155000000,  -2.7155000000)
 
   4 primitive cells build up your supercell.
 

 Routine SETGRP: Setting up the symmetry group for a 
 simple cubic supercell.


 Subroutine GETGRP returns: Found 48 space group operations
 (whereof 24 operations were pure point group operations)
 out of a pool of 48 trial point group operations.


The static configuration has the point symmetry T_d .
 The point group associated with its full space group is O_h .


Analysis of symmetry for dynamics (positions and initial velocities):
=====================================================================
 Subroutine PRICEL returns following result:
 
  LATTYP: Found a face centered cubic cell.
 ALAT       =     5.4310000000
  
  Lattice vectors:
  
 A1 = (   2.7155000000,   2.7155000000,   0.0000000000)
 A2 = (   2.7155000000,   0.0000000000,  -2.7155000000)
 A3 = (   0.0000000000,   2.7155000000,  -2.7155000000)
 
   4 primitive cells build up your supercell.
 

 Routine SETGRP: Setting up the symmetry group for a 
 simple cubic supercell.


 Subroutine GETGRP returns: Found 48 space group operations
 (whereof 24 operations were pure point group operations)
 out of a pool of 48 trial point group operations.


The dynamic configuration has the point symmetry T_d .
 The point group associated with its full space group is O_h .


 Subroutine INISYM returns: Found 48 space group operations
 (whereof 24 operations are pure point group operations),
 and found     4 'primitive' translations

 
 
 KPOINTS: k-points                                

Automatic generation of k-mesh.
Space group operators:
 irot       det(A)        alpha          n_x          n_y          n_z        tau_x        tau_y        tau_z
    1     1.000000     0.000001     1.000000     0.000000     0.000000     0.000000     0.000000     0.000000
    2     1.000000   120.000000    -0.577350    -0.577350    -0.577350     0.000000     0.000000     0.000000
    3     1.000000   120.000000     0.577350     0.577350     0.577350     0.000000     0.000000     0.000000
    4    -1.000000    90.000000     0.000000     0.000000    -1.000000     0.000000     0.000000     0.000000
    5    -1.000000   180.000000     0.000000     0.707107     0.707107     0.000000     0.000000     0.000000
    6    -1.000000    90.000000     0.000000     1.000000     0.000000     0.000000     0.000000     0.000000
    7     1.000000   180.000000     0.000000     0.000000     1.000000     0.000000     0.000000     0.000000
    8     1.000000   120.000000    -0.577350     0.577350     0.577350     0.000000     0.000000     0.000000
    9     1.000000   120.000000    -0.577350     0.577350    -0.577350     0.000000     0.000000     0.000000
   10    -1.000000    90.000000     0.000000     0.000000     1.000000     0.000000     0.000000     0.000000
   11    -1.000000    90.000000    -1.000000     0.000000     0.000000     0.000000     0.000000     0.000000
   12    -1.000000   180.000000     0.707107     0.000000     0.707107     0.000000     0.000000     0.000000
   13     1.000000   120.000000     0.577350    -0.577350     0.577350     0.000000     0.000000     0.000000
   14     1.000000   120.000000    -0.577350    -0.577350     0.577350     0.000000     0.000000     0.000000
   15     1.000000   180.000000     1.000000     0.000000     0.000000     0.000000     0.000000     0.000000
   16    -1.000000    90.000000     0.000000    -1.000000     0.000000     0.000000     0.000000     0.000000
   17    -1.000000   180.000000     0.707107     0.707107     0.000000     0.000000     0.000000     0.000000
   18    -1.000000    90.000000     1.000000     0.000000     0.000000     0.000000     0.000000     0.000000
   19     1.000000   120.000000     0.577350    -0.577350    -0.577350     0.000000     0.000000     0.000000
   20     1.000000   180.000000     0.000000     1.000000     0.000000     0.000000     0.000000     0.000000
   21     1.000000   120.000000     0.577350     0.577350    -0.577350     0.000000     0.000000     0.000000
   22    -1.000000   180.000000     0.000000    -0.707107     0.707107     0.000000     0.000000     0.000000
   23    -1.000000   180.000000     0.707107    -0.707107     0.000000     0.000000     0.000000     0.000000
   24    -1.000000   180.000000     0.707107     0.000000    -0.707107     0.000000     0.000000     0.000000
   25    -1.000000     0.000001     1.000000     0.000000     0.000000     0.750000     0.750000    -0.750000
   26    -1.000000   120.000000    -0.577350    -0.577350    -0.577350     0.750000     0.750000    -0.750000
   27    -1.000000   120.000000     0.577350     0.577350     0.577350     0.750000     0.750000    -0.750000
   28     1.000000    90.000000     0.000000     0.000000    -1.000000     0.750000     0.750000    -0.750000
   29     1.000000   180.000000     0.000000     0.707107     0.707107     0.750000     0.750000    -0.750000
   30     1.000000    90.000000     0.000000     1.000000     0.000000     0.750000     0.750000    -0.750000
   31    -1.000000   180.000000     0.000000     0.000000     1.000000     0.750000     0.750000    -0.750000
   32    -1.000000   120.000000    -0.577350     0.577350     0.577350     0.750000     0.750000    -0.750000
   33    -1.000000   120.000000    -0.577350     0.577350    -0.577350     0.750000     0.750000    -0.750000
   34     1.000000    90.000000     0.000000     0.000000     1.000000     0.750000     0.750000    -0.750000
   35     1.000000    90.000000    -1.000000     0.000000     0.000000     0.750000     0.750000    -0.750000
   36     1.000000   180.000000     0.707107     0.000000     0.707107     0.750000     0.750000    -0.750000
   37    -1.000000   120.000000     0.577350    -0.577350     0.577350     0.750000     0.750000    -0.750000
   38    -1.000000   120.000000    -0.577350    -0.577350     0.577350     0.750000     0.750000    -0.750000
   39    -1.000000   180.000000     1.000000     0.000000     0.000000     0.750000     0.750000    -0.750000
   40     1.000000    90.000000     0.000000    -1.000000     0.000000     0.750000     0.750000    -0.750000
   41     1.000000   180.000000     0.707107     0.707107     0.000000     0.750000     0.750000    -0.750000
   42     1.000000    90.000000     1.000000     0.000000     0.000000     0.750000     0.750000    -0.750000
   43    -1.000000   120.000000     0.577350    -0.577350    -0.577350     0.750000     0.750000    -0.750000
   44    -1.000000   180.000000     0.000000     1.000000     0.000000     0.750000     0.750000    -0.750000
   45    -1.000000   120.000000     0.577350     0.577350    -0.577350     0.750000     0.750000    -0.750000
   46     1.000000   180.000000     0.000000    -0.707107     0.707107     0.750000     0.750000    -0.750000
   47     1.000000   180.000000     0.707107    -0.707107     0.000000     0.750000     0.750000    -0.750000
   48     1.000000   180.000000     0.707107     0.000000    -0.707107     0.750000     0.750000    -0.750000
 
 Subroutine IBZKPT returns following result:
 ===========================================
 
 Found     56 irreducible k-points:
 
 Following reciprocal coordinates:
            Coordinates               Weight
  0.000000  0.000000  0.000000      1.000000
  0.090909  0.000000  0.000000      6.000000
  0.181818  0.000000  0.000000      6.000000
  0.272727  0.000000  0.000000      6.000000
  0.363636  0.000000  0.000000      6.000000
  0.454545  0.000000  0.000000      6.000000
  0.090909  0.090909  0.000000     12.000000
  0.181818  0.090909  0.000000     24.000000
  0.272727  0.090909  0.000000     24.000000
  0.363636  0.090909  0.000000     24.000000
  0.454545  0.090909  0.000000     24.000000
  0.181818  0.181818  0.000000     12.000000
  0.272727  0.181818  0.000000     24.000000
  0.363636  0.181818  0.000000     24.000000
  0.454545  0.181818  0.000000     24.000000
  0.272727  0.272727  0.000000     12.000000
  0.363636  0.272727  0.000000     24.000000
  0.454545  0.272727  0.000000     24.000000
  0.363636  0.363636  0.000000     12.000000
  0.454545  0.363636  0.000000     24.000000
  0.454545  0.454545  0.000000     12.000000
  0.090909  0.090909  0.090909      8.000000
  0.181818  0.090909  0.090909     24.000000
  0.272727  0.090909  0.090909     24.000000
  0.363636  0.090909  0.090909     24.000000
  0.454545  0.090909  0.090909     24.000000
  0.181818  0.181818  0.090909     24.000000
  0.272727  0.181818  0.090909     48.000000
  0.363636  0.181818  0.090909     48.000000
  0.454545  0.181818  0.090909     48.000000
  0.272727  0.272727  0.090909     24.000000
  0.363636  0.272727  0.090909     48.000000
  0.454545  0.272727  0.090909     48.000000
  0.363636  0.363636  0.090909     24.000000
  0.454545  0.363636  0.090909     48.000000
  0.454545  0.454545  0.090909     24.000000
  0.181818  0.181818  0.181818      8.000000
  0.272727  0.181818  0.181818     24.000000
  0.363636  0.181818  0.181818     24.000000
  0.454545  0.181818  0.181818     24.000000
  0.272727  0.272727  0.181818     24.000000
  0.363636  0.272727  0.181818     48.000000
  0.454545  0.272727  0.181818     48.000000
  0.363636  0.363636  0.181818     24.000000
  0.454545  0.363636  0.181818     48.000000
  0.454545  0.454545  0.181818     24.000000
  0.272727  0.272727  0.272727      8.000000
  0.363636  0.272727  0.272727     24.000000
  0.454545  0.272727  0.272727     24.000000
  0.363636  0.363636  0.272727     24.000000
  0.454545  0.363636  0.272727     48.000000
  0.454545  0.454545  0.272727     24.000000
  0.363636  0.363636  0.363636      8.000000
  0.454545  0.363636  0.363636     24.000000
  0.454545  0.454545  0.363636     24.000000
  0.454545  0.454545  0.454545      8.000000
 
 Following cartesian coordinates:
            Coordinates               Weight
  0.000000  0.000000  0.000000      1.000000
  0.090909  0.000000  0.000000      6.000000
  0.181818  0.000000  0.000000      6.000000
  0.272727  0.000000  0.000000      6.000000
  0.363636  0.000000  0.000000      6.000000
  0.454545  0.000000  0.000000      6.000000
  0.090909  0.090909  0.000000     12.000000
  0.181818  0.090909  0.000000     24.000000
  0.272727  0.090909  0.000000     24.000000
  0.363636  0.090909  0.000000     24.000000
  0.454545  0.090909  0.000000     24.000000
  0.181818  0.181818  0.000000     12.000000
  0.272727  0.181818  0.000000     24.000000
  0.363636  0.181818  0.000000     24.000000
  0.454545  0.181818  0.000000     24.000000
  0.272727  0.272727  0.000000     12.000000
  0.363636  0.272727  0.000000     24.000000
  0.454545  0.272727  0.000000     24.000000
  0.363636  0.363636  0.000000     12.000000
  0.454545  0.363636  0.000000     24.000000
  0.454545  0.454545  0.000000     12.000000
  0.090909  0.090909  0.090909      8.000000
  0.181818  0.090909  0.090909     24.000000
  0.272727  0.090909  0.090909     24.000000
  0.363636  0.090909  0.090909     24.000000
  0.454545  0.090909  0.090909     24.000000
  0.181818  0.181818  0.090909     24.000000
  0.272727  0.181818  0.090909     48.000000
  0.363636  0.181818  0.090909     48.000000
  0.454545  0.181818  0.090909     48.000000
  0.272727  0.272727  0.090909     24.000000
  0.363636  0.272727  0.090909     48.000000
  0.454545  0.272727  0.090909     48.000000
  0.363636  0.363636  0.090909     24.000000
  0.454545  0.363636  0.090909     48.000000
  0.454545  0.454545  0.090909     24.000000
  0.181818  0.181818  0.181818      8.000000
  0.272727  0.181818  0.181818     24.000000
  0.363636  0.181818  0.181818     24.000000
  0.454545  0.181818  0.181818     24.000000
  0.272727  0.272727  0.181818     24.000000
  0.363636  0.272727  0.181818     48.000000
  0.454545  0.272727  0.181818     48.000000
  0.363636  0.363636  0.181818     24.000000
  0.454545  0.363636  0.181818     48.000000
  0.454545  0.454545  0.181818     24.000000
  0.272727  0.272727  0.272727      8.000000
  0.363636  0.272727  0.272727     24.000000
  0.454545  0.272727  0.272727     24.000000
  0.363636  0.363636  0.272727     24.000000
  0.454545  0.363636  0.272727     48.000000
  0.454545  0.454545  0.272727     24.000000
  0.363636  0.363636  0.363636      8.000000
  0.454545  0.363636  0.363636     24.000000
  0.454545  0.454545  0.363636     24.000000
  0.454545  0.454545  0.454545      8.000000
 


--------------------------------------------------------------------------------------------------------




 Dimension of arrays:
   k-points           NKPTS =     56   k-points in BZ     NKDIM =     56   number of bands    NBANDS=     25
   number of dos      NEDOS =    301   number of ions     NIONS =      8
   non local maximal  LDIM  =      4   non local SUM 2l+1 LMDIM =      8
   total plane-waves  NPLWV =  21952
   max r-space proj   IRMAX =      1   max aug-charges    IRDMAX=   4781
   dimension x,y,z NGX =    28 NGY =   28 NGZ =   28
   dimension x,y,z NGXF=    56 NGYF=   56 NGZF=   56
   support grid    NGXF=    56 NGYF=   56 NGZF=   56
   ions per type =               8
 NGX,Y,Z   is equivalent  to a cutoff of   8.57,  8.57,  8.57 a.u.
 NGXF,Y,Z  is equivalent  to a cutoff of  17.14, 17.14, 17.14 a.u.


 I would recommend the setting:
   dimension x,y,z NGX =    27 NGY =   27 NGZ =   27
 SYSTEM =  diamond Si                              
 POSCAR =  Si dia                                  

 Startparameter for this run:
   NWRITE =      2    write-flag & timer
   PREC   = accura    normal or accurate (medium, high low for compatibility)
   ISTART =      0    job   : 0-new  1-cont  2-samecut
   ICHARG =      2    charge: 1-file 2-atom 10-const
   ISPIN  =      1    spin polarized calculation?
   LNONCOLLINEAR =      F non collinear calculations
   LSORBIT =      F    spin-orbit coupling
   INIWAV =      1    electr: 0-lowe 1-rand  2-diag
   LASPH  =      F    aspherical Exc in radial PAW
   METAGGA=      F    non-selfconsistent MetaGGA calc.

 Electronic Relaxation 1
   ENCUT  =  240.0 eV  17.64 Ry    4.20 a.u.   6.86  6.86  6.86*2*pi/ulx,y,z
   ENINI  =  240.0     initial cutoff
   ENAUG  =  322.1 eV  augmentation charge cutoff
   NELM   =     60;   NELMIN=  0; NELMDL=  3     # of ELM steps 
   EDIFF  = 0.1E-03   stopping-criterion for ELM
   LREAL  =      F    real-space projection
   NLSPLINE    = F    spline interpolate recip. space projectors
   LCOMPAT=      F    compatible to vasp.4.4
   GGA_COMPAT  = T    GGA compatible to vasp.4.4-vasp.4.6
   LMAXPAW     = -100 max onsite density
   LMAXMIX     =    2 max onsite mixed and CHGCAR
   VOSKOWN=      0    Vosko Wilk Nusair interpolation
   ROPT   =    0.00000
 Ionic relaxation
   EDIFFG = -.1E-01   stopping-criterion for IOM
   NSW    =      9    number of steps for IOM
   NBLOCK =      1;   KBLOCK =      9    inner block; outer block 
   IBRION =      2    ionic relax: 0-MD 1-quasi-New 2-CG
   NFREE  =      1    steps in history (QN), initial steepest desc. (CG)
   ISIF   =      3    stress and relaxation
   IWAVPR =     11    prediction:  0-non 1-charg 2-wave 3-comb
   ISYM   =      2    0-nonsym 1-usesym 2-fastsym
   LCORR  =      T    Harris-Foulkes like correction to forces

   POTIM  = 1.0000    time-step for ionic-motion
   TEIN   =    0.0    initial temperature
   TEBEG  =    0.0;   TEEND  =   0.0 temperature during run
   SMASS  =  -3.00    Nose mass-parameter (am)
   estimated Nose-frequenzy (Omega)   =  0.10E-29 period in steps =****** mass=  -0.674E-27a.u.
   SCALEE = 1.0000    scale energy and forces
   NPACO  =    256;   APACO  = 16.0  distance and # of slots for P.C.
   PSTRESS=    0.0 pullay stress

  Mass of Ions in am
   POMASS =  28.09
  Ionic Valenz
   ZVAL   =   4.00
  Atomic Wigner-Seitz radii
   RWIGS  =  -1.00
  virtual crystal weights 
   VCA    =   1.00
   NELECT =      32.0000    total number of electrons
   NUPDOWN=      -1.0000    fix difference up-down

 DOS related values:
   EMIN   =  10.00;   EMAX   =-10.00  energy-range for DOS
   EFERMI =   0.00
   ISMEAR =     0;   SIGMA  =   0.10  broadening in eV -4-tet -1-fermi 0-gaus

 Electronic relaxation 2 (details)
   IALGO  =     38    algorithm
   LDIAG  =      T    sub-space diagonalisation (order eigenvalues)
   LSUBROT=      F    optimize rotation matrix (better conditioning)
   TURBO    =      0    0=normal 1=particle mesh
   IRESTART =      0    0=no restart 2=restart with 2 vectors
   NREBOOT  =      0    no. of reboots
   NMIN     =      0    reboot dimension
   EREF     =   0.00    reference energy to select bands
   IMIX   =      4    mixing-type and parameters
     AMIX     =   0.40;   BMIX     =  1.00
     AMIX_MAG =   1.60;   BMIX_MAG =  1.00
     AMIN     =   0.10
     WC   =   100.;   INIMIX=   1;  MIXPRE=   1;  MAXMIX= -45

 Intra band minimization:
   WEIMIN = 0.0010     energy-eigenvalue tresh-hold
   EBREAK =  0.10E-05  absolut break condition
   DEPER  =   0.30     relativ break condition  

   TIME   =   0.40     timestep for ELM

  volume/ion in A,a.u.               =      20.02       135.13
  Fermi-wavevector in a.u.,A,eV,Ry     =   0.956999  1.808467 12.460868  0.915848
  Thomas-Fermi vector in A             =   2.085978
 
 Write flags
   LWAVE  =      T    write WAVECAR
   LCHARG =      T    write CHGCAR
   LVTOT  =      F    write LOCPOT, total local potential
   LVHAR  =      F    write LOCPOT, Hartree potential only
   LELF   =      F    write electronic localiz. function (ELF)
   LORBIT =      0    0 simple, 1 ext, 2 COOP (PROOUT)


 Dipole corrections
   LMONO  =      F    monopole corrections only (constant potential shift)
   LDIPOL =      F    correct potential (dipole corrections)
   IDIPOL =      0    1-x, 2-y, 3-z, 4-all directions 
   EPSILON=  1.0000000 bulk dielectric constant

 Exchange correlation treatment:
   GGA     =    --    GGA type
   LEXCH   =     8    internal setting for exchange type
   VOSKOWN=      0    Vosko Wilk Nusair interpolation
   LHFCALC =     F    Hartree Fock is set to
   LHFONE  =     F    Hartree Fock one center treatment
   AEXX    =    0.0000 exact exchange contribution

 Linear response parameters
   LEPSILON=     F    determine dielectric tensor
   LRPA    =     F    only Hartree local field effects (RPA)
   LNABLA  =     F    use nabla operator in PAW spheres
   LVEL    =     F    velocity operator in full k-point grid
   LINTERFAST=   F  fast interpolation
   KINTER  =     0    interpolate to denser k-point grid
   CSHIFT  =0.1000    complex shift for real part using Kramers Kronig
   OMEGAMAX=  -1.0    maximum frequency
   DEG_THRESHOLD= 0.2000000E-02 threshold for treating states as degnerate
   RTIME   =    0.100 relaxation time in fs

 Orbital magnetization related:
   ORBITALMAG=     F  switch on orbital magnetization
   LCHIMAG   =     F  perturbation theory with respect to B field
   DQ        =  0.001000  dq finite difference perturbation B field



--------------------------------------------------------------------------------------------------------


 conjugate gradient relaxation of ions
 charge density and potential will be updated during run
 non-spin polarized calculation
 Variant of blocked Davidson
 Davidson routine will perform the subspace rotation
 perform sub-space diagonalisation
    after iterative eigenvector-optimisation
 modified Broyden-mixing scheme, WC =      100.0
 initial mixing is a Kerker type mixing with AMIX =  0.4000 and BMIX =      1.0000
 Hartree-type preconditioning will be used
 using additional bands            9
 reciprocal scheme for non local part
 use partial core corrections
 calculate Harris-corrections to forces 
   (improved forces if not selfconsistent)
 use gradient corrections 
 use of overlap-Matrix (Vanderbilt PP)
 Gauss-broadening in eV      SIGMA  =   0.10


--------------------------------------------------------------------------------------------------------


  energy-cutoff  :      240.00
  volume of cell :      160.19
      direct lattice vectors                 reciprocal lattice vectors
     5.431000000  0.000000000  0.000000000     0.184128153  0.000000000  0.000000000
     0.000000000  5.431000000  0.000000000     0.000000000  0.184128153  0.000000000
     0.000000000  0.000000000  5.431000000     0.000000000  0.000000000  0.184128153

  length of vectors
     5.431000000  5.431000000  5.431000000     0.184128153  0.184128153  0.184128153


 
 k-points in units of 2pi/SCALE and weight: k-points                                
   0.00000000  0.00000000  0.00000000       0.001
   0.09090909  0.00000000  0.00000000       0.005
   0.18181818  0.00000000  0.00000000       0.005
   0.27272727  0.00000000  0.00000000       0.005
   0.36363636  0.00000000  0.00000000       0.005
   0.45454545  0.00000000  0.00000000       0.005
   0.09090909  0.09090909  0.00000000       0.009
   0.18181818  0.09090909  0.00000000       0.018
   0.27272727  0.09090909  0.00000000       0.018
   0.36363636  0.09090909  0.00000000       0.018
   0.45454545  0.09090909  0.00000000       0.018
   0.18181818  0.18181818  0.00000000       0.009
   0.27272727  0.18181818  0.00000000       0.018
   0.36363636  0.18181818  0.00000000       0.018
   0.45454545  0.18181818  0.00000000       0.018
   0.27272727  0.27272727  0.00000000       0.009
   0.36363636  0.27272727  0.00000000       0.018
   0.45454545  0.27272727  0.00000000       0.018
   0.36363636  0.36363636  0.00000000       0.009
   0.45454545  0.36363636  0.00000000       0.018
   0.45454545  0.45454545  0.00000000       0.009
   0.09090909  0.09090909  0.09090909       0.006
   0.18181818  0.09090909  0.09090909       0.018
   0.27272727  0.09090909  0.09090909       0.018
   0.36363636  0.09090909  0.09090909       0.018
   0.45454545  0.09090909  0.09090909       0.018
   0.18181818  0.18181818  0.09090909       0.018
   0.27272727  0.18181818  0.09090909       0.036
   0.36363636  0.18181818  0.09090909       0.036
   0.45454545  0.18181818  0.09090909       0.036
   0.27272727  0.27272727  0.09090909       0.018
   0.36363636  0.27272727  0.09090909       0.036
   0.45454545  0.27272727  0.09090909       0.036
   0.36363636  0.36363636  0.09090909       0.018
   0.45454545  0.36363636  0.09090909       0.036
   0.45454545  0.45454545  0.09090909       0.018
   0.18181818  0.18181818  0.18181818       0.006
   0.27272727  0.18181818  0.18181818       0.018
   0.36363636  0.18181818  0.18181818       0.018
   0.45454545  0.18181818  0.18181818       0.018
   0.27272727  0.27272727  0.18181818       0.018
   0.36363636  0.27272727  0.18181818       0.036
   0.45454545  0.27272727  0.18181818       0.036
   0.36363636  0.36363636  0.18181818       0.018
   0.45454545  0.36363636  0.18181818       0.036
   0.45454545  0.45454545  0.18181818       0.018
   0.27272727  0.27272727  0.27272727       0.006
   0.36363636  0.27272727  0.27272727       0.018
   0.45454545  0.27272727  0.27272727       0.018
   0.36363636  0.36363636  0.27272727       0.018
   0.45454545  0.36363636  0.27272727       0.036
   0.45454545  0.45454545  0.27272727       0.018
   0.36363636  0.36363636  0.36363636       0.006
   0.45454545  0.36363636  0.36363636       0.018
   0.45454545  0.45454545  0.36363636       0.018
   0.45454545  0.45454545  0.45454545       0.006
 
 k-points in reciprocal lattice and weights: k-points                                
   0.00000000  0.00000000  0.00000000       0.001
   0.09090909  0.00000000  0.00000000       0.005
   0.18181818  0.00000000  0.00000000       0.005
   0.27272727  0.00000000  0.00000000       0.005
   0.36363636  0.00000000  0.00000000       0.005
   0.45454545  0.00000000  0.00000000       0.005
   0.09090909  0.09090909  0.00000000       0.009
   0.18181818  0.09090909  0.00000000       0.018
   0.27272727  0.09090909  0.00000000       0.018
   0.36363636  0.09090909  0.00000000       0.018
   0.45454545  0.09090909  0.00000000       0.018
   0.18181818  0.18181818  0.00000000       0.009
   0.27272727  0.18181818  0.00000000       0.018
   0.36363636  0.18181818  0.00000000       0.018
   0.45454545  0.18181818  0.00000000       0.018
   0.27272727  0.27272727  0.00000000       0.009
   0.36363636  0.27272727  0.00000000       0.018
   0.45454545  0.27272727  0.00000000       0.018
   0.36363636  0.36363636  0.00000000       0.009
   0.45454545  0.36363636  0.00000000       0.018
   0.45454545  0.45454545  0.00000000       0.009
   0.09090909  0.09090909  0.09090909       0.006
   0.18181818  0.09090909  0.09090909       0.018
   0.27272727  0.09090909  0.09090909       0.018
   0.36363636  0.09090909  0.09090909       0.018
   0.45454545  0.09090909  0.09090909       0.018
   0.18181818  0.18181818  0.09090909       0.018
   0.27272727  0.18181818  0.09090909       0.036
   0.36363636  0.18181818  0.09090909       0.036
   0.45454545  0.18181818  0.09090909       0.036
   0.27272727  0.27272727  0.09090909       0.018
   0.36363636  0.27272727  0.09090909       0.036
   0.45454545  0.27272727  0.09090909       0.036
   0.36363636  0.36363636  0.09090909       0.018
   0.45454545  0.36363636  0.09090909       0.036
   0.45454545  0.45454545  0.09090909       0.018
   0.18181818  0.18181818  0.18181818       0.006
   0.27272727  0.18181818  0.18181818       0.018
   0.36363636  0.18181818  0.18181818       0.018
   0.45454545  0.18181818  0.18181818       0.018
   0.27272727  0.27272727  0.18181818       0.018
   0.36363636  0.27272727  0.18181818       0.036
   0.45454545  0.27272727  0.18181818       0.036
   0.36363636  0.36363636  0.18181818       0.018
   0.45454545  0.36363636  0.18181818       0.036
   0.45454545  0.45454545  0.18181818       0.018
   0.27272727  0.27272727  0.27272727       0.006
   0.36363636  0.27272727  0.27272727       0.018
   0.45454545  0.27272727  0.27272727       0.018
   0.36363636  0.36363636  0.27272727       0.018
   0.45454545  0.36363636  0.27272727       0.036
   0.45454545  0.45454545  0.27272727       0.018
   0.36363636  0.36363636  0.36363636       0.006
   0.45454545  0.36363636  0.36363636       0.018
   0.45454545  0.45454545  0.36363636       0.018
   0.45454545  0.45454545  0.45454545       0.006
 
 position of ions in fractional coordinates (direct lattice) 
   0.00000000  0.00000000  0.00000000
   0.00000000  0.50000000  0.50000000
   0.50000000  0.00000000  0.50000000
   0.50000000  0.50000000  0.00000000
   0.25000000  0.25000000  0.25000000
   0.75000000  0.75000000  0.25000000
   0.75000000  0.25000000  0.75000000
   0.25000000  0.75000000  0.75000000
 
 position of ions in cartesian coordinates  (Angst):
   0.00000000  0.00000000  0.00000000
   0.00000000  2.71550000  2.71550000
   2.71550000  0.00000000  2.71550000
   2.71550000  2.71550000  0.00000000
   1.35775000  1.35775000  1.35775000
   4.07325000  4.07325000  1.35775000
   4.07325000  1.35775000  4.07325000
   1.35775000  4.07325000  4.07325000
 


--------------------------------------------------------------------------------------------------------


 k-point  1 :   0.0000 0.0000 0.0000  plane waves:    1357
 k-point  2 :   0.0909 0.0000 0.0000  plane waves:    1349
 k-point  3 :   0.1818 0.0000 0.0000  plane waves:    1350
 k-point  4 :   0.2727 0.0000 0.0000  plane waves:    1334
 k-point  5 :   0.3636 0.0000 0.0000  plane waves:    1354
 k-point  6 :   0.4545 0.0000 0.0000  plane waves:    1366
 k-point  7 :   0.0909 0.0909 0.0000  plane waves:    1351
 k-point  8 :   0.1818 0.0909 0.0000  plane waves:    1342
 k-point  9 :   0.2727 0.0909 0.0000  plane waves:    1346
 k-point 10 :   0.3636 0.0909 0.0000  plane waves:    1349
 k-point 11 :   0.4545 0.0909 0.0000  plane waves:    1363
 k-point 12 :   0.1818 0.1818 0.0000  plane waves:    1336
 k-point 13 :   0.2727 0.1818 0.0000  plane waves:    1354
 k-point 14 :   0.3636 0.1818 0.0000  plane waves:    1347
 k-point 15 :   0.4545 0.1818 0.0000  plane waves:    1354
 k-point 16 :   0.2727 0.2727 0.0000  plane waves:    1356
 k-point 17 :   0.3636 0.2727 0.0000  plane waves:    1355
 k-point 18 :   0.4545 0.2727 0.0000  plane waves:    1351
 k-point 19 :   0.3636 0.3636 0.0000  plane waves:    1346
 k-point 20 :   0.4545 0.3636 0.0000  plane waves:    1348
 k-point 21 :   0.4545 0.4545 0.0000  plane waves:    1352
 k-point 22 :   0.0909 0.0909 0.0909  plane waves:    1352
 k-point 23 :   0.1818 0.0909 0.0909  plane waves:    1345
 k-point 24 :   0.2727 0.0909 0.0909  plane waves:    1349
 k-point 25 :   0.3636 0.0909 0.0909  plane waves:    1359
 k-point 26 :   0.4545 0.0909 0.0909  plane waves:    1353
 k-point 27 :   0.1818 0.1818 0.0909  plane waves:    1344
 k-point 28 :   0.2727 0.1818 0.0909  plane waves:    1349
 k-point 29 :   0.3636 0.1818 0.0909  plane waves:    1347
 k-point 30 :   0.4545 0.1818 0.0909  plane waves:    1347
 k-point 31 :   0.2727 0.2727 0.0909  plane waves:    1348
 k-point 32 :   0.3636 0.2727 0.0909  plane waves:    1354
 k-point 33 :   0.4545 0.2727 0.0909  plane waves:    1357
 k-point 34 :   0.3636 0.3636 0.0909  plane waves:    1348
 k-point 35 :   0.4545 0.3636 0.0909  plane waves:    1350
 k-point 36 :   0.4545 0.4545 0.0909  plane waves:    1357
 k-point 37 :   0.1818 0.1818 0.1818  plane waves:    1343
 k-point 38 :   0.2727 0.1818 0.1818  plane waves:    1354
 k-point 39 :   0.3636 0.1818 0.1818  plane waves:    1360
 k-point 40 :   0.4545 0.1818 0.1818  plane waves:    1347
 k-point 41 :   0.2727 0.2727 0.1818  plane waves:    1351
 k-point 42 :   0.3636 0.2727 0.1818  plane waves:    1356
 k-point 43 :   0.4545 0.2727 0.1818  plane waves:    1353
 k-point 44 :   0.3636 0.3636 0.1818  plane waves:    1357
 k-point 45 :   0.4545 0.3636 0.1818  plane waves:    1357
 k-point 46 :   0.4545 0.4545 0.1818  plane waves:    1361
 k-point 47 :   0.2727 0.2727 0.2727  plane waves:    1361
 k-point 48 :   0.3636 0.2727 0.2727  plane waves:    1352
 k-point 49 :   0.4545 0.2727 0.2727  plane waves:    1357
 k-point 50 :   0.3636 0.3636 0.2727  plane waves:    1359
 k-point 51 :   0.4545 0.3636 0.2727  plane waves:    1357
 k-point 52 :   0.4545 0.4545 0.2727  plane waves:    1363
 k-point 53 :   0.3636 0.3636 0.3636  plane waves:    1361
 k-point 54 :   0.4545 0.3636 0.3636  plane waves:    1368
 k-point 55 :   0.4545 0.4545 0.3636  plane waves:    1361
 k-point 56 :   0.4545 0.4545 0.4545  plane waves:    1358

 maximum and minimum number of plane-waves per node :       182      154

 maximum number of plane-waves:      1368
 maximum index in each direction: 
   IXMAX=    6   IYMAX=    6   IZMAX=    6
   IXMIN=   -7   IYMIN=   -7   IZMIN=   -7

 NGX is ok and might be reduce to  28
 NGY is ok and might be reduce to  28
 NGZ is ok and might be reduce to  28

 total amount of memory used by VASP on root node    32094. kBytes
========================================================================

   base      :      30000. kBytes
   nonl-proj :        668. kBytes
   fftplans  :        243. kBytes
   grid      :        329. kBytes
   one-center:          3. kBytes
   wavefun   :        851. kBytes
 
     INWAV:  cpu time    0.0000: real time    0.0000
 Broyden mixing: mesh for mixing (old mesh)
   NGX = 13   NGY = 13   NGZ = 13
  (NGX  = 56   NGY  = 56   NGZ  = 56)
  gives a total of   2197 points

 initial charge density was supplied:
 charge density of overlapping atoms calculated
 number of electron      32.0000000 magnetization 
 keeping initial charge density in first step


--------------------------------------------------------------------------------------------------------


 Maximum index for augmentation-charges          125 (set IRDMAX)


--------------------------------------------------------------------------------------------------------


 First call to EWALD:  gamma=   0.326
 Maximum number of real-space cells 3x 3x 3
 Maximum number of reciprocal cells 3x 3x 3

 FEWALD executed in parallel
    FEWALD:  cpu time    0.0015: real time    0.0015


----------------------------------------- Iteration    1(   1)  ---------------------------------------


    POTLOK:  cpu time    0.0090: real time    0.0100
    SETDIJ:  cpu time    0.0017: real time    0.0018
     EDDAV:  cpu time    0.6482: real time    0.6851
       DOS:  cpu time    0.0011: real time    0.0011
    --------------------------------------------
      LOOP:  cpu time    0.6615: real time    0.7009

 eigenvalue-minimisations  :  2800
 total energy-change (2. order) : 0.3016874E+02  (-0.7774907E+03)
 number of electron      32.0000000 magnetization 
 augmentation part       32.0000000 magnetization 

 Free energy of the ion-electron system (eV)
  ---------------------------------------------------
  alpha Z        PSCENC =        13.44915721
  Ewald energy   TEWEN  =      -914.08579262
  -Hartree energ DENC   =       -44.03749844
  -exchange      EXHF   =         0.00000000
  -V(xc)+E(xc)   XCENC  =       -74.41614067
  PAW double counting   =       704.99039692     -564.24414232
  entropy T*S    EENTRO =        -0.00996770
  eigenvalues    EBANDS =        84.03651617
  atomic energy  EATOM  =       824.48621262
  Solvation  Ediel_sol  =         0.00000000
  ---------------------------------------------------
  free energy    TOTEN  =        30.16874118 eV

  energy without entropy =       30.17870887  energy(sigma->0) =       30.17372502


--------------------------------------------------------------------------------------------------------




----------------------------------------- Iteration    1(   2)  ---------------------------------------


     EDDAV:  cpu time    0.5038: real time    0.5070
       DOS:  cpu time    0.0010: real time    0.0010
    --------------------------------------------
      LOOP:  cpu time    0.5056: real time    0.5203

 eigenvalue-minimisations  :  3665
 total energy-change (2. order) :-0.7144860E+02  (-0.6860636E+02)
 number of electron      32.0000000 magnetization 
 augmentation part       32.0000000 magnetization 

 Free energy of the ion-electron system (eV)
  ---------------------------------------------------
  alpha Z        PSCENC =        13.44915721
  Ewald energy   TEWEN  =      -914.08579262
  -Hartree energ DENC   =       -44.03749844
  -exchange      EXHF   =         0.00000000
  -V(xc)+E(xc)   XCENC  =       -74.41614067
  PAW double counting   =       704.99039692     -564.24414232
  entropy T*S    EENTRO =        -0.00000010
  eigenvalues    EBANDS =        12.57794745
  atomic energy  EATOM  =       824.48621262
  Solvation  Ediel_sol  =         0.00000000
  ---------------------------------------------------
  free energy    TOTEN  =       -41.27985995 eV

  energy without entropy =      -41.27985985  energy(sigma->0) =      -41.27985990


--------------------------------------------------------------------------------------------------------




----------------------------------------- Iteration    1(   3)  ---------------------------------------


     EDDAV:  cpu time    0.4890: real time    0.4902
       DOS:  cpu time    0.0009: real time    0.0009
    CHARGE:  cpu time    0.0189: real time    0.0191
    MIXING:  cpu time    0.0010: real time    0.0011
    --------------------------------------------
      LOOP:  cpu time    0.5103: real time    0.5142

 eigenvalue-minimisations  :  3730
 total energy-change (2. order) :-0.2690095E+01  (-0.2674972E+01)
 number of electron      31.9999960 magnetization 
 augmentation part       -1.8735853 magnetization 

 Broyden mixing:
  rms(total) = 0.11245E+01    rms(broyden)= 0.11245E+01
  rms(prec ) = 0.14631E+01
  weight for this iteration     100.00

 Free energy of the ion-electron system (eV)
  ---------------------------------------------------
  alpha Z        PSCENC =        13.44915721
  Ewald energy   TEWEN  =      -914.08579262
  -Hartree energ DENC   =       -44.03749844
  -exchange      EXHF   =         0.00000000
  -V(xc)+E(xc)   XCENC  =       -74.41614067
  PAW double counting   =       704.99039692     -564.24414232
  entropy T*S    EENTRO =        -0.00000000
  eigenvalues    EBANDS =         9.88785188
  atomic energy  EATOM  =       824.48621262
  Solvation  Ediel_sol  =         0.00000000
  ---------------------------------------------------
  free energy    TOTEN  =       -43.96995541 eV

  energy without entropy =      -43.96995541  energy(sigma->0) =      -43.96995541


--------------------------------------------------------------------------------------------------------




----------------------------------------- Iteration    1(   4)  ---------------------------------------


    POTLOK:  cpu time    0.0040: real time    0.0040
    SETDIJ:  cpu time    0.0020: real time    0.0020
     EDDAV:  cpu time    0.4850: real time    0.4864
       DOS:  cpu time    0.0009: real time    0.0009
    CHARGE:  cpu time    0.0188: real time    0.0189
    MIXING:  cpu time    0.0008: real time    0.0008
    --------------------------------------------
      LOOP:  cpu time    0.5119: real time    0.5163

 eigenvalue-minimisations  :  3685
 total energy-change (2. order) : 0.4684444E+00  (-0.4439020E-01)
 number of electron      31.9999960 magnetization 
 augmentation part       -1.8532510 magnetization 

 Broyden mixing:
  rms(total) = 0.66369E+00    rms(broyden)= 0.66369E+00
  rms(prec ) = 0.86599E+00
  weight for this iteration     100.00

 eigenvalues of (default mixing * dielectric matrix)
  average eigenvalue GAMMA=   2.4265
  2.4265

 Free energy of the ion-electron system (eV)
  ---------------------------------------------------
  alpha Z        PSCENC =        13.44915721
  Ewald energy   TEWEN  =      -914.08579262
  -Hartree energ DENC   =       -49.95505873
  -exchange      EXHF   =         0.00000000
  -V(xc)+E(xc)   XCENC  =       -73.45327893
  PAW double counting   =      1746.82562962    -1606.53112756
  entropy T*S    EENTRO =        -0.00000000
  eigenvalues    EBANDS =        15.76274738
  atomic energy  EATOM  =       824.48621262
  Solvation  Ediel_sol  =         0.00000000
  ---------------------------------------------------
  free energy    TOTEN  =       -43.50151102 eV

  energy without entropy =      -43.50151102  energy(sigma->0) =      -43.50151102


--------------------------------------------------------------------------------------------------------




----------------------------------------- Iteration    1(   5)  ---------------------------------------


    POTLOK:  cpu time    0.0038: real time    0.0039
    SETDIJ:  cpu time    0.0011: real time    0.0011
     EDDAV:  cpu time    0.4497: real time    0.4510
       DOS:  cpu time    0.0010: real time    0.0010
    CHARGE:  cpu time    0.0182: real time    0.0183
    MIXING:  cpu time    0.0005: real time    0.0005
    --------------------------------------------
      LOOP:  cpu time    0.4749: real time    0.4789

 eigenvalue-minimisations  :  3365
 total energy-change (2. order) : 0.2283408E+00  (-0.4952678E-01)
 number of electron      31.9999961 magnetization 
 augmentation part       -1.8256907 magnetization 

 Broyden mixing:
  rms(total) = 0.38465E-01    rms(broyden)= 0.38463E-01
  rms(prec ) = 0.56851E-01
  weight for this iteration     100.00

 eigenvalues of (default mixing * dielectric matrix)
  average eigenvalue GAMMA=   1.8616
  1.1864  2.5369

 Free energy of the ion-electron system (eV)
  ---------------------------------------------------
  alpha Z        PSCENC =        13.44915721
  Ewald energy   TEWEN  =      -914.08579262
  -Hartree energ DENC   =       -59.68113331
  -exchange      EXHF   =         0.00000000
  -V(xc)+E(xc)   XCENC  =       -71.86097559
  PAW double counting   =      4214.00074311    -4074.29536576
  entropy T*S    EENTRO =        -0.00000024
  eigenvalues    EBANDS =        24.71398439
  atomic energy  EATOM  =       824.48621262
  Solvation  Ediel_sol  =         0.00000000
  ---------------------------------------------------
  free energy    TOTEN  =       -43.27317019 eV

  energy without entropy =      -43.27316995  energy(sigma->0) =      -43.27317007


--------------------------------------------------------------------------------------------------------




----------------------------------------- Iteration    1(   6)  ---------------------------------------


    POTLOK:  cpu time    0.0039: real time    0.0039
    SETDIJ:  cpu time    0.0011: real time    0.0011
     EDDAV:  cpu time    0.4893: real time    0.4912
       DOS:  cpu time    0.0010: real time    0.0010
    CHARGE:  cpu time    0.0186: real time    0.0186
    MIXING:  cpu time    0.0006: real time    0.0006
    --------------------------------------------
      LOOP:  cpu time    0.5148: real time    0.5195

 eigenvalue-minimisations  :  3540
 total energy-change (2. order) :-0.4615744E-02  (-0.1965326E-02)
 number of electron      31.9999961 magnetization 
 augmentation part       -1.8273558 magnetization 

 Broyden mixing:
  rms(total) = 0.20355E-01    rms(broyden)= 0.20355E-01
  rms(prec ) = 0.29573E-01
  weight for this iteration     100.00

 eigenvalues of (default mixing * dielectric matrix)
  average eigenvalue GAMMA=   1.9623
  2.5348  2.5348  0.8173

 Free energy of the ion-electron system (eV)
  ---------------------------------------------------
  alpha Z        PSCENC =        13.44915721
  Ewald energy   TEWEN  =      -914.08579262
  -Hartree energ DENC   =       -59.66387610
  -exchange      EXHF   =         0.00000000
  -V(xc)+E(xc)   XCENC  =       -71.83332154
  PAW double counting   =      4289.09932742    -4149.33175614
  entropy T*S    EENTRO =        -0.00000017
  eigenvalues    EBANDS =        24.60226339
  atomic energy  EATOM  =       824.48621262
  Solvation  Ediel_sol  =         0.00000000
  ---------------------------------------------------
  free energy    TOTEN  =       -43.27778594 eV

  energy without entropy =      -43.27778577  energy(sigma->0) =      -43.27778585


--------------------------------------------------------------------------------------------------------




----------------------------------------- Iteration    1(   7)  ---------------------------------------


    POTLOK:  cpu time    0.0039: real time    0.0039
    SETDIJ:  cpu time    0.0020: real time    0.0020
     EDDAV:  cpu time    0.4375: real time    0.4387
       DOS:  cpu time    0.0010: real time    0.0010
    CHARGE:  cpu time    0.0182: real time    0.0183
    MIXING:  cpu time    0.0005: real time    0.0005
    --------------------------------------------
      LOOP:  cpu time    0.4635: real time    0.4675

 eigenvalue-minimisations  :  3230
 total energy-change (2. order) :-0.1572336E-02  (-0.2958236E-03)
 number of electron      31.9999961 magnetization 
 augmentation part       -1.8295799 magnetization 

 Broyden mixing:
  rms(total) = 0.12290E-01    rms(broyden)= 0.12290E-01
  rms(prec ) = 0.14235E-01
  weight for this iteration     100.00

 eigenvalues of (default mixing * dielectric matrix)
  average eigenvalue GAMMA=   1.7804
  2.4591  2.4591  1.1018  1.1018

 Free energy of the ion-electron system (eV)
  ---------------------------------------------------
  alpha Z        PSCENC =        13.44915721
  Ewald energy   TEWEN  =      -914.08579262
  -Hartree energ DENC   =       -59.48560369
  -exchange      EXHF   =         0.00000000
  -V(xc)+E(xc)   XCENC  =       -71.83871828
  PAW double counting   =      4260.99556238    -4121.16559416
  entropy T*S    EENTRO =        -0.00000011
  eigenvalues    EBANDS =        24.36541838
  atomic energy  EATOM  =       824.48621262
  Solvation  Ediel_sol  =         0.00000000
  ---------------------------------------------------
  free energy    TOTEN  =       -43.27935827 eV

  energy without entropy =      -43.27935816  energy(sigma->0) =      -43.27935822


--------------------------------------------------------------------------------------------------------




----------------------------------------- Iteration    1(   8)  ---------------------------------------


    POTLOK:  cpu time    0.0038: real time    0.0038
    SETDIJ:  cpu time    0.0011: real time    0.0011
     EDDAV:  cpu time    0.4191: real time    0.4203
       DOS:  cpu time    0.0010: real time    0.0010
    CHARGE:  cpu time    0.0199: real time    0.0200
    MIXING:  cpu time    0.0006: real time    0.0006
    --------------------------------------------
      LOOP:  cpu time    0.4459: real time    0.4500

 eigenvalue-minimisations  :  2905
 total energy-change (2. order) :-0.1011419E-03  (-0.1543084E-04)
 number of electron      31.9999961 magnetization 
 augmentation part       -1.8293067 magnetization 

 Broyden mixing:
  rms(total) = 0.63071E-02    rms(broyden)= 0.63071E-02
  rms(prec ) = 0.68473E-02
  weight for this iteration     100.00

 eigenvalues of (default mixing * dielectric matrix)
  average eigenvalue GAMMA=   1.9394
  3.0727  2.4915  2.2380  0.9865  0.9081

 Free energy of the ion-electron system (eV)
  ---------------------------------------------------
  alpha Z        PSCENC =        13.44915721
  Ewald energy   TEWEN  =      -914.08579262
  -Hartree energ DENC   =       -59.60971111
  -exchange      EXHF   =         0.00000000
  -V(xc)+E(xc)   XCENC  =       -71.82358697
  PAW double counting   =      4239.67495690    -4099.85440855
  entropy T*S    EENTRO =        -0.00000011
  eigenvalues    EBANDS =        24.48371321
  atomic energy  EATOM  =       824.48621262
  Solvation  Ediel_sol  =         0.00000000
  ---------------------------------------------------
  free energy    TOTEN  =       -43.27945941 eV

  energy without entropy =      -43.27945930  energy(sigma->0) =      -43.27945936


--------------------------------------------------------------------------------------------------------




----------------------------------------- Iteration    1(   9)  ---------------------------------------


    POTLOK:  cpu time    0.0038: real time    0.0038
    SETDIJ:  cpu time    0.0011: real time    0.0011
     EDDAV:  cpu time    0.3793: real time    0.3803
       DOS:  cpu time    0.0010: real time    0.0010
    --------------------------------------------
      LOOP:  cpu time    0.3856: real time    0.3892

 eigenvalue-minimisations  :  2510
 total energy-change (2. order) :-0.5320469E-04  (-0.7129170E-05)
 number of electron      31.9999961 magnetization 
 augmentation part       -1.8293067 magnetization 

 Free energy of the ion-electron system (eV)
  ---------------------------------------------------
  alpha Z        PSCENC =        13.44915721
  Ewald energy   TEWEN  =      -914.08579262
  -Hartree energ DENC   =       -59.65407952
  -exchange      EXHF   =         0.00000000
  -V(xc)+E(xc)   XCENC  =       -71.81904204
  PAW double counting   =      4211.09596536    -4071.27614333
  entropy T*S    EENTRO =        -0.00000011
  eigenvalues    EBANDS =        24.52420982
  atomic energy  EATOM  =       824.48621262
  Solvation  Ediel_sol  =         0.00000000
  ---------------------------------------------------
  free energy    TOTEN  =       -43.27951262 eV

  energy without entropy =      -43.27951251  energy(sigma->0) =      -43.27951256


--------------------------------------------------------------------------------------------------------




 average (electrostatic) potential at core
  the test charge radii are     0.9892
  (the norm of the test charge is              1.0000)
       1 -83.2542       2 -83.2542       3 -83.2542       4 -83.2542       5 -83.2542
       6 -83.2542       7 -83.2542       8 -83.2542
 
 
 
 E-fermi :   6.1238     XC(G=0):  -9.4096     alpha+bet :-11.9779


 k-point     1 :       0.0000    0.0000    0.0000
  band No.  band energies     occupation 
      1      -6.1324      2.00000
      2      -1.9879      2.00000
      3      -1.9879      2.00000
      4      -1.9879      2.00000
      5      -1.9879      2.00000
      6      -1.9879      2.00000
      7      -1.9879      2.00000
      8       2.9779      2.00000
      9       2.9779      2.00000
     10       2.9779      2.00000
     11       2.9779      2.00000
     12       2.9779      2.00000
     13       2.9779      2.00000
     14       5.8376      1.99995
     15       5.8376      1.99995
     16       5.8376      1.99995
     17       6.5548      0.00000
     18       6.5548      0.00000
     19       6.5548      0.00000
     20       6.5548      0.00000
     21       6.5548      0.00000
     22       6.5548      0.00000
     23       8.4037      0.00000
     24       8.4037      0.00000
     25       8.4037      0.00000

 k-point     2 :       0.0909    0.0000    0.0000
  band No.  band energies     occupation 
      1      -6.0962      2.00000
      2      -2.6687      2.00000
      3      -1.9760      2.00000
      4      -1.9760      2.00000
      5      -1.9760      2.00000
      6      -1.9760      2.00000
      7      -1.2632      2.00000
      8       2.8738      2.00000
      9       2.8738      2.00000
     10       2.8738      2.00000
     11       2.8738      2.00000
     12       3.0106      2.00000
     13       3.0106      2.00000
     14       5.6027      2.00000
     15       5.6899      2.00000
     16       5.6899      2.00000
     17       6.4405      0.00001
     18       6.7503      0.00000
     19       6.7503      0.00000
     20       6.7503      0.00000
     21       6.7503      0.00000
     22       6.7684      0.00000
     23       8.3159      0.00000
     24       8.5962      0.00000
     25       8.5962      0.00000

 k-point     3 :       0.1818    0.0000    0.0000
  band No.  band energies     occupation 
      1      -5.9879      2.00000
      2      -3.3001      2.00000
      3      -1.9430      2.00000
      4      -1.9430      2.00000
      5      -1.9430      2.00000
      6      -1.9430      2.00000
      7      -0.5034      2.00000
      8       2.6257      2.00000
      9       2.6257      2.00000
     10       2.6257      2.00000
     11       2.6257      2.00000
     12       3.1084      2.00000
     13       3.1084      2.00000
     14       5.0325      2.00000
     15       5.3395      2.00000
     16       5.3395      2.00000
     17       6.4184      0.00003
     18       7.0826      0.00000
     19       7.2742      0.00000
     20       7.2742      0.00000
     21       7.2742      0.00000
     22       7.2742      0.00000
     23       8.0827      0.00000
     24       9.0786      0.00000
     25       9.0786      0.00000

 k-point     4 :       0.2727    0.0000    0.0000
  band No.  band energies     occupation 
      1      -5.8079      2.00000
      2      -3.8764      2.00000
      3      -1.8980      2.00000
      4      -1.8980      2.00000
      5      -1.8980      2.00000
      6      -1.8980      2.00000
      7       0.2838      2.00000
      8       2.3471      2.00000
      9       2.3471      2.00000
     10       2.3471      2.00000
     11       2.3471      2.00000
     12       3.2709      2.00000
     13       3.2709      2.00000
     14       4.3128      2.00000
     15       4.9216      2.00000
     16       4.9216      2.00000
     17       6.4828      0.00000
     18       7.5032      0.00000
     19       7.7689      0.00000
     20       8.0185      0.00000
     21       8.0185      0.00000
     22       8.0185      0.00000
     23       8.0185      0.00000
     24       9.7180      0.00000
     25       9.7180      0.00000

 k-point     5 :       0.3636    0.0000    0.0000
  band No.  band energies     occupation 
      1      -5.5570      2.00000
      2      -4.3934      2.00000
      3      -1.8546      2.00000
      4      -1.8546      2.00000
      5      -1.8546      2.00000
      6      -1.8546      2.00000
      7       1.0898      2.00000
      8       2.1200      2.00000
      9       2.1200      2.00000
     10       2.1200      2.00000
     11       2.1200      2.00000
     12       3.4952      2.00000
     13       3.4952      2.00000
     14       3.5305      2.00000
     15       4.5043      2.00000
     16       4.5043      2.00000
     17       6.6257      0.00000
     18       7.4325      0.00000
     19       8.0261      0.00000
     20       8.9014      0.00000
     21       8.9014      0.00000
     22       8.9014      0.00000
     23       8.9014      0.00000
     24       9.9821      0.00000
     25      10.4391      0.00000

 k-point     6 :       0.4545    0.0000    0.0000
  band No.  band energies     occupation 
      1      -5.2364      2.00000
      2      -4.8480      2.00000
      3      -1.8274      2.00000
      4      -1.8274      2.00000
      5      -1.8274      2.00000
      6      -1.8274      2.00000
      7       1.9052      2.00000
      8       1.9948      2.00000
      9       1.9948      2.00000
     10       1.9948      2.00000
     11       1.9948      2.00000
     12       2.7219      2.00000
     13       3.7788      2.00000
     14       3.7788      2.00000
     15       4.1174      2.00000
     16       4.1174      2.00000
     17       6.8389      0.00000
     18       7.1140      0.00000
     19       8.6448      0.00000
     20       9.3290      0.00000
     21       9.8397      0.00000
     22       9.8397      0.00000
     23       9.8397      0.00000
     24       9.8397      0.00000
     25      11.1552      0.00000

 k-point     7 :       0.0909    0.0909    0.0000
  band No.  band energies     occupation 
      1      -6.0602      2.00000
      2      -2.6497      2.00000
      3      -2.6497      2.00000
      4      -2.0213      2.00000
      5      -1.9097      2.00000
      6      -1.2618      2.00000
      7      -1.2618      2.00000
      8       2.5667      2.00000
      9       2.8912      2.00000
     10       2.8912      2.00000
     11       2.9263      2.00000
     12       2.9263      2.00000
     13       3.0358      2.00000
     14       5.2037      2.00000
     15       5.5413      2.00000
     16       5.8048      1.99999
     17       6.6218      0.00000
     18       6.6444      0.00000
     19       6.6444      0.00000
     20       6.9527      0.00000
     21       6.9527      0.00000
     22       7.2090      0.00000
     23       8.4782      0.00000
     24       8.5428      0.00000
     25       8.6205      0.00000

 k-point     8 :       0.1818    0.0909    0.0000
  band No.  band energies     occupation 
      1      -5.9521      2.00000
      2      -3.2760      2.00000
      3      -2.5948      2.00000
      4      -2.0538      2.00000
      5      -1.8195      2.00000
      6      -1.2602      2.00000
      7      -0.5163      2.00000
      8       2.2279      2.00000
      9       2.6063      2.00000
     10       2.7277      2.00000
     11       2.9776      2.00000
     12       2.9898      2.00000
     13       3.0493      2.00000
     14       4.6266      2.00000
     15       5.1913      2.00000
     16       5.6009      2.00000
     17       6.6287      0.00000
     18       6.8825      0.00000
     19       7.1844      0.00000
     20       7.2558      0.00000
     21       7.4555      0.00000
     22       7.8920      0.00000
     23       8.2792      0.00000
     24       8.8914      0.00000
     25       9.0034      0.00000

 k-point     9 :       0.2727    0.0909    0.0000
  band No.  band energies     occupation 
      1      -5.7725      2.00000
      2      -3.8487      2.00000
      3      -2.5103      2.00000
      4      -2.0869      2.00000
      5      -1.7089      2.00000
      6      -1.2696      2.00000
      7       0.2497      2.00000
      8       1.9412      2.00000
      9       2.2769      2.00000
     10       2.5165      2.00000
     11       2.8005      2.00000
     12       3.1312      2.00000
     13       3.2435      2.00000
     14       3.9786      2.00000
     15       4.7715      2.00000
     16       5.1793      2.00000
     17       6.6974      0.00000
     18       7.4667      0.00000
     19       7.6622      0.00000
     20       7.9422      0.00000
     21       7.9730      0.00000
     22       8.1798      0.00000
     23       8.7223      0.00000
     24       9.4002      0.00000
     25       9.6505      0.00000

 k-point    10 :       0.3636    0.0909    0.0000
  band No.  band energies     occupation 
      1      -5.5223      2.00000
      2      -4.3632      2.00000
      3      -2.4072      2.00000
      4      -2.1344      2.00000
      5      -1.5872      2.00000
      6      -1.3033      2.00000
      7       1.0249      2.00000
      8       1.7584      2.00000
      9       1.9870      2.00000
     10       2.3703      2.00000
     11       2.5795      2.00000
     12       3.2840      2.00000
     13       3.3495      2.00000
     14       3.5083      2.00000
     15       4.3525      2.00000
     16       4.7011      2.00000
     17       6.8432      0.00000
     18       7.6435      0.00000
     19       8.1717      0.00000
     20       8.2650      0.00000
     21       8.8375      0.00000
     22       9.0445      0.00000
     23       9.6492      0.00000
     24       9.8715      0.00000
     25      10.3894      0.00000

 k-point    11 :       0.4545    0.0909    0.0000
  band No.  band energies     occupation 
      1      -5.2028      2.00000
      2      -4.8156      2.00000
      3      -2.3006      2.00000
      4      -2.2061      2.00000
      5      -1.4689      2.00000
      6      -1.3700      2.00000
      7       1.7050      2.00000
      8       1.7862      2.00000
      9       1.7970      2.00000
     10       2.3310      2.00000
     11       2.4071      2.00000
     12       2.5535      2.00000
     13       3.6296      2.00000
     14       3.8430      2.00000
     15       3.9669      2.00000
     16       4.2445      2.00000
     17       7.0574      0.00000
     18       7.3296      0.00000
     19       8.7751      0.00000
     20       9.1863      0.00000
     21       9.4354      0.00000
     22       9.8120      0.00000
     23       9.8445      0.00000
     24      10.4687      0.00000
     25      10.5422      0.00000

 k-point    12 :       0.1818    0.1818    0.0000
  band No.  band energies     occupation 
      1      -5.8448      2.00000
      2      -3.2053      2.00000
      3      -3.2053      2.00000
      4      -2.1645      2.00000
      5      -1.6750      2.00000
      6      -0.5589      2.00000
      7      -0.5589      2.00000
      8       1.8809      2.00000
      9       2.6650      2.00000
     10       2.6650      2.00000
     11       2.9152      2.00000
     12       2.9152      2.00000
     13       3.2071      2.00000
     14       4.0440      2.00000
     15       4.8385      2.00000
     16       5.6938      2.00000
     17       6.8203      0.00000
     18       7.1803      0.00000
     19       7.1803      0.00000
     20       7.7325      0.00000
     21       7.7325      0.00000
     22       8.6617      0.00000
     23       8.7013      0.00000
     24       8.7964      0.00000
     25       8.8749      0.00000

 k-point    13 :       0.2727    0.1818    0.0000
  band No.  band energies     occupation 
      1      -5.6667      2.00000
      2      -3.7668      2.00000
      3      -3.0925      2.00000
      4      -2.2884      2.00000
      5      -1.5074      2.00000
      6      -0.6404      2.00000
      7       0.1464      2.00000
      8       1.6371      2.00000
      9       2.2990      2.00000
     10       2.7905      2.00000
     11       2.7985      2.00000
     12       3.1911      2.00000
     13       3.2165      2.00000
     14       3.4321      2.00000
     15       4.4150      2.00000
     16       5.4570      2.00000
     17       7.1408      0.00000
     18       7.2554      0.00000
     19       7.9461      0.00000
     20       8.1088      0.00000
     21       8.4304      0.00000
     22       8.4884      0.00000
     23       9.0298      0.00000
     24       9.4722      0.00000
     25       9.5400      0.00000

 k-point    14 :       0.3636    0.1818    0.0000
  band No.  band energies     occupation 
      1      -5.4187      2.00000
      2      -4.2730      2.00000
      3      -2.9457      2.00000
      4      -2.4343      2.00000
      5      -1.3202      2.00000
      6      -0.7664      2.00000
      7       0.8423      2.00000
      8       1.5244      2.00000
      9       1.9627      2.00000
     10       2.7387      2.00000
     11       2.8086      2.00000
     12       3.0039      2.00000
     13       3.0823      2.00000
     14       3.5545      2.00000
     15       3.9943      2.00000
     16       5.0114      2.00000
     17       7.4036      0.00000
     18       7.7786      0.00000
     19       8.1797      0.00000
     20       8.5857      0.00000
     21       8.8459      0.00000
     22       9.2661      0.00000
     23       9.4788      0.00000
     24      10.2334      0.00000
     25      10.4807      0.00000

 k-point    15 :       0.4545    0.1818    0.0000
  band No.  band energies     occupation 
      1      -5.1024      2.00000
      2      -4.7195      2.00000
      3      -2.7768      2.00000
      4      -2.6009      2.00000
      5      -1.1231      2.00000
      6      -0.9324      2.00000
      7       1.5187      2.00000
      8       1.5495      2.00000
      9       1.7027      2.00000
     10       2.1723      2.00000
     11       2.7833      2.00000
     12       2.9121      2.00000
     13       3.2760      2.00000
     14       3.6090      2.00000
     15       3.9975      2.00000
     16       4.4973      2.00000
     17       7.6155      0.00000
     18       7.8788      0.00000
     19       8.6201      0.00000
     20       9.1516      0.00000
     21       9.5345      0.00000
     22       9.6994      0.00000
     23       9.8320      0.00000
     24      10.3124      0.00000
     25      10.4100      0.00000

 k-point    16 :       0.2727    0.2727    0.0000
  band No.  band energies     occupation 
      1      -5.4911      2.00000
      2      -3.6337      2.00000
      3      -3.6337      2.00000
      4      -2.5106      2.00000
      5      -1.2856      2.00000
      6      -0.0240      2.00000
      7      -0.0240      2.00000
      8       1.4629      2.00000
      9       2.4073      2.00000
     10       2.4073      2.00000
     11       2.8590      2.00000
     12       3.1695      2.00000
     13       3.1695      2.00000
     14       3.4833      2.00000
     15       3.9888      2.00000
     16       5.4778      2.00000
     17       7.1397      0.00000
     18       8.0242      0.00000
     19       8.0242      0.00000
     20       8.7765      0.00000
     21       8.7765      0.00000
     22       8.8985      0.00000
     23       9.0726      0.00000
     24       9.3317      0.00000
     25      10.4412      0.00000

 k-point    17 :       0.3636    0.2727    0.0000
  band No.  band energies     occupation 
      1      -5.2471      2.00000
      2      -4.1253      2.00000
      3      -3.4551      2.00000
      4      -2.7521      2.00000
      5      -1.0414      2.00000
      6      -0.2498      2.00000
      7       0.5723      2.00000
      8       1.4273      2.00000
      9       2.0376      2.00000
     10       2.2857      2.00000
     11       2.5950      2.00000
     12       3.2134      2.00000
     13       3.5421      2.00000
     14       3.5667      2.00000
     15       3.6418      2.00000
     16       5.1991      2.00000
     17       7.5136      0.00000
     18       8.1697      0.00000
     19       8.8949      0.00000
     20       8.9226      0.00000
     21       9.0620      0.00000
     22       9.2186      0.00000
     23       9.5582      0.00000
     24      10.0190      0.00000
     25      10.1609      0.00000

 k-point    18 :       0.4545    0.2727    0.0000
  band No.  band energies     occupation 
      1      -4.9363      2.00000
      2      -4.5611      2.00000
      3      -3.2399      2.00000
      4      -3.0004      2.00000
      5      -0.7788      2.00000
      6      -0.5089      2.00000
      7       1.1502      2.00000
      8       1.5233      2.00000
      9       1.7180      2.00000
     10       1.7338      2.00000
     11       2.8563      2.00000
     12       3.1834      2.00000
     13       3.3203      2.00000
     14       3.4538      2.00000
     15       4.1772      2.00000
     16       4.7241      2.00000
     17       8.1917      0.00000
     18       8.3726      0.00000
     19       8.6213      0.00000
     20       9.0591      0.00000
     21       9.4359      0.00000
     22       9.7268      0.00000
     23       9.9073      0.00000
     24       9.9899      0.00000
     25      10.4088      0.00000

 k-point    19 :       0.3636    0.3636    0.0000
  band No.  band energies     occupation 
      1      -5.0089      2.00000
      2      -3.9239      2.00000
      3      -3.9239      2.00000
      4      -3.0752      2.00000
      5      -0.7434      2.00000
      6       0.2515      2.00000
      7       0.2515      2.00000
      8       1.4620      2.00000
      9       1.7610      2.00000
     10       2.2027      2.00000
     11       2.2027      2.00000
     12       3.1456      2.00000
     13       3.7627      2.00000
     14       3.7627      2.00000
     15       3.8492      2.00000
     16       5.1471      2.00000
     17       7.5631      0.00000
     18       8.8357      0.00000
     19       9.0595      0.00000
     20       9.0595      0.00000
     21       9.5402      0.00000
     22       9.5402      0.00000
     23       9.5902      0.00000
     24       9.9048      0.00000
     25      10.0455      0.00000

 k-point    20 :       0.4545    0.3636    0.0000
  band No.  band energies     occupation 
      1      -4.7065      2.00000
      2      -4.3434      2.00000
      3      -3.6751      2.00000
      4      -3.3880      2.00000
      5      -0.4239      2.00000
      6      -0.0880      2.00000
      7       0.7469      2.00000
      8       1.2480      2.00000
      9       1.6145      2.00000
     10       1.8677      2.00000
     11       2.4485      2.00000
     12       2.7670      2.00000
     13       3.8856      2.00000
     14       3.9454      2.00000
     15       4.3295      2.00000
     16       4.8295      2.00000
     17       7.9724      0.00000
     18       8.6718      0.00000
     19       8.8753      0.00000
     20       9.1401      0.00000
     21       9.2463      0.00000
     22       9.4686      0.00000
     23      10.0333      0.00000
     24      10.5090      0.00000
     25      10.6697      0.00000

 k-point    21 :       0.4545    0.4545    0.0000
  band No.  band energies     occupation 
      1      -4.4163      2.00000
      2      -4.0704      2.00000
      3      -4.0704      2.00000
      4      -3.7488      2.00000
      5      -0.0508      2.00000
      6       0.3412      2.00000
      7       0.3412      2.00000
      8       0.7865      2.00000
      9       1.8091      2.00000
     10       2.0922      2.00000
     11       2.0922      2.00000
     12       2.3968      2.00000
     13       4.2786      2.00000
     14       4.3911      2.00000
     15       4.3911      2.00000
     16       4.7289      2.00000
     17       8.0508      0.00000
     18       8.4636      0.00000
     19       8.4636      0.00000
     20       8.5211      0.00000
     21      10.1920      0.00000
     22      10.1920      0.00000
     23      10.2505      0.00000
     24      10.5989      0.00000
     25      11.0583      0.00000

 k-point    22 :       0.0909    0.0909    0.0909
  band No.  band energies     occupation 
      1      -6.0241      2.00000
      2      -2.6337      2.00000
      3      -2.6337      2.00000
      4      -2.6337      2.00000
      5      -1.2604      2.00000
      6      -1.2604      2.00000
      7      -1.2604      2.00000
      8       2.6081      2.00000
      9       2.6081      2.00000
     10       2.6081      2.00000
     11       3.0681      2.00000
     12       3.0681      2.00000
     13       3.0681      2.00000
     14       4.8479      2.00000
     15       5.6691      2.00000
     16       5.6691      2.00000
     17       6.6364      0.00000
     18       6.6364      0.00000
     19       6.6364      0.00000
     20       7.2897      0.00000
     21       7.2897      0.00000
     22       7.2897      0.00000
     23       8.4337      0.00000
     24       8.6516      0.00000
     25       8.6516      0.00000

 k-point    23 :       0.1818    0.0909    0.0909
  band No.  band energies     occupation 
      1      -5.9164      2.00000
      2      -3.2534      2.00000
      3      -2.5888      2.00000
      4      -2.5888      2.00000
      5      -1.2587      2.00000
      6      -1.2587      2.00000
      7      -0.5328      2.00000
      8       2.2775      2.00000
      9       2.2775      2.00000
     10       2.7333      2.00000
     11       3.0266      2.00000
     12       3.0266      2.00000
     13       3.1651      2.00000
     14       4.2809      2.00000
     15       5.3404      2.00000
     16       5.5406      2.00000
     17       6.6911      0.00000
     18       6.9134      0.00000
     19       6.9134      0.00000
     20       7.5196      0.00000
     21       7.9524      0.00000
     22       7.9524      0.00000
     23       8.3772      0.00000
     24       8.7007      0.00000
     25       9.0913      0.00000

 k-point    24 :       0.2727    0.0909    0.0909
  band No.  band energies     occupation 
      1      -5.7373      2.00000
      2      -3.8219      2.00000
      3      -2.5252      2.00000
      4      -2.5252      2.00000
      5      -1.2622      2.00000
      6      -1.2622      2.00000
      7       0.2080      2.00000
      8       1.9953      2.00000
      9       1.9953      2.00000
     10       2.8524      2.00000
     11       2.8524      2.00000
     12       2.9431      2.00000
     13       3.3253      2.00000
     14       3.6678      2.00000
     15       4.9404      2.00000
     16       5.1278      2.00000
     17       6.8013      0.00000
     18       7.5009      0.00000
     19       7.5009      0.00000
     20       7.8788      0.00000
     21       8.1207      0.00000
     22       8.7738      0.00000
     23       8.7738      0.00000
     24       9.1487      0.00000
     25       9.6763      0.00000

 k-point    25 :       0.3636    0.0909    0.0909
  band No.  band energies     occupation 
      1      -5.4879      2.00000
      2      -4.3334      2.00000
      3      -2.4606      2.00000
      4      -2.4606      2.00000
      5      -1.2727      2.00000
      6      -1.2727      2.00000
      7       0.9472      2.00000
      8       1.8030      2.00000
      9       1.8030      2.00000
     10       2.6611      2.00000
     11       2.6611      2.00000
     12       3.0290      2.00000
     13       3.2398      2.00000
     14       3.5466      2.00000
     15       4.5352      2.00000
     16       4.6052      2.00000
     17       6.9742      0.00000
     18       7.8016      0.00000
     19       8.2981      0.00000
     20       8.2981      0.00000
     21       8.3546      0.00000
     22       9.6921      0.00000
     23       9.6921      0.00000
     24       9.7173      0.00000
     25      10.3370      0.00000

 k-point    26 :       0.4545    0.0909    0.0909
  band No.  band energies     occupation 
      1      -5.1694      2.00000
      2      -4.7837      2.00000
      3      -2.4188      2.00000
      4      -2.4188      2.00000
      5      -1.2833      2.00000
      6      -1.2833      2.00000
      7       1.6697      2.00000
      8       1.7099      2.00000
      9       1.7099      2.00000
     10       2.3650      2.00000
     11       2.5411      2.00000
     12       2.5411      2.00000
     13       3.6228      2.00000
     14       3.8259      2.00000
     15       4.0862      2.00000
     16       4.1589      2.00000
     17       7.2057      0.00000
     18       7.4874      0.00000
     19       8.9310      0.00000
     20       9.2155      0.00000
     21       9.2155      0.00000
     22       9.5550      0.00000
     23      10.2078      0.00000
     24      10.2078      0.00000
     25      10.7526      0.00000

 k-point    27 :       0.1818    0.1818    0.0909
  band No.  band energies     occupation 
      1      -5.8095      2.00000
      2      -3.1875      2.00000
      3      -3.1875      2.00000
      4      -2.5772      2.00000
      5      -1.2521      2.00000
      6      -0.5855      2.00000
      7      -0.5855      2.00000
      8       1.9505      2.00000
      9       2.4266      2.00000
     10       2.4266      2.00000
     11       3.1380      2.00000
     12       3.1380      2.00000
     13       3.2382      2.00000
     14       3.7186      2.00000
     15       5.0872      2.00000
     16       5.5906      2.00000
     17       6.8607      0.00000
     18       7.0057      0.00000
     19       7.0057      0.00000
     20       8.1330      0.00000
     21       8.1330      0.00000
     22       8.4109      0.00000
     23       8.7106      0.00000
     24       8.8193      0.00000
     25       9.1177      0.00000

 k-point    28 :       0.2727    0.1818    0.0909
  band No.  band energies     occupation 
      1      -5.6319      2.00000
      2      -3.7427      2.00000
      3      -3.0844      2.00000
      4      -2.5774      2.00000
      5      -1.2316      2.00000
      6      -0.6788      2.00000
      7       0.0846      2.00000
      8       1.7271      2.00000
      9       2.1521      2.00000
     10       2.6722      2.00000
     11       3.0120      2.00000
     12       3.1302      2.00000
     13       3.2513      2.00000
     14       3.3272      2.00000
     15       4.6792      2.00000
     16       5.3678      2.00000
     17       7.1572      0.00000
     18       7.1822      0.00000
     19       7.6008      0.00000
     20       8.4338      0.00000
     21       8.4346      0.00000
     22       8.9081      0.00000
     23       8.9295      0.00000
     24       9.5600      0.00000
     25       9.5840      0.00000

 k-point    29 :       0.3636    0.1818    0.0909
  band No.  band energies     occupation 
      1      -5.3848      2.00000
      2      -4.2450      2.00000
[...]
     20       8.1447      0.00000
     21       9.1854      0.00000
     22       9.3774      0.00000
     23       9.3774      0.00000
     24       9.3841      0.00000
     25      10.6924      0.00000

 k-point    45 :       0.4545    0.3636    0.1818
  band No.  band energies     occupation 
      1      -4.6803      2.00000
      2      -4.3397      2.00000
      3      -3.7514      2.00000
      4      -3.5397      2.00000
      5      -0.9170      2.00000
      6      -0.6816      2.00000
      7      -0.0036      2.00000
      8       0.4099      2.00000
      9       2.1817      2.00000
     10       2.4001      2.00000
     11       3.0256      2.00000
     12       3.4247      2.00000
     13       3.8374      2.00000
     14       3.8815      2.00000
     15       4.1777      2.00000
     16       4.6037      2.00000
     17       7.8952      0.00000
     18       8.2015      0.00000
     19       8.3170      0.00000
     20       8.5108      0.00000
     21       8.9569      0.00000
     22       8.9979      0.00000
     23       9.0224      0.00000
     24       9.7902      0.00000
     25       9.8124      0.00000

 k-point    46 :       0.4545    0.4545    0.1818
  band No.  band energies     occupation 
      1      -4.4113      2.00000
      2      -4.0972      2.00000
      3      -4.0972      2.00000
      4      -3.8237      2.00000
      5      -0.6842      2.00000
      6      -0.3744      2.00000
      7      -0.3744      2.00000
      8      -0.0086      2.00000
      9       2.4434      2.00000
     10       2.7322      2.00000
     11       2.7322      2.00000
     12       3.0757      2.00000
     13       4.1742      2.00000
     14       4.2660      2.00000
     15       4.2660      2.00000
     16       4.5554      2.00000
     17       7.9215      0.00000
     18       8.1415      0.00000
     19       8.2268      0.00000
     20       8.2268      0.00000
     21       9.2154      0.00000
     22       9.2154      0.00000
     23       9.4656      0.00000
     24       9.5491      0.00000
     25       9.9269      0.00000

 k-point    47 :       0.2727    0.2727    0.2727
  band No.  band energies     occupation 
      1      -5.2641      2.00000
      2      -3.5974      2.00000
      3      -3.5974      2.00000
      4      -3.5974      2.00000
      5      -0.7237      2.00000
      6      -0.7237      2.00000
      7      -0.7237      2.00000
      8       1.3515      2.00000
      9       2.3190      2.00000
     10       2.3190      2.00000
     11       2.3190      2.00000
     12       3.5841      2.00000
     13       3.5841      2.00000
     14       3.5841      2.00000
     15       4.8218      2.00000
     16       4.8218      2.00000
     17       7.3347      0.00000
     18       7.3347      0.00000
     19       7.3347      0.00000
     20       7.5322      0.00000
     21       9.1759      0.00000
     22       9.1759      0.00000
     23      10.5713      0.00000
     24      10.5713      0.00000
     25      10.5713      0.00000

 k-point    48 :       0.3636    0.2727    0.2727
  band No.  band energies     occupation 
      1      -5.0357      2.00000
      2      -4.0166      2.00000
      3      -3.5242      2.00000
      4      -3.5242      2.00000
      5      -0.9434      2.00000
      6      -0.9434      2.00000
      7      -0.3910      2.00000
      8       0.8490      2.00000
      9       2.3896      2.00000
     10       2.3896      2.00000
     11       2.9248      2.00000
     12       3.6679      2.00000
     13       3.6679      2.00000
     14       3.7722      2.00000
     15       4.5459      2.00000
     16       4.6750      2.00000
     17       7.5815      0.00000
     18       7.6259      0.00000
     19       7.6672      0.00000
     20       7.6672      0.00000
     21       8.9969      0.00000
     22       9.4266      0.00000
     23       9.9908      0.00000
     24       9.9908      0.00000
     25      10.0579      0.00000

 k-point    49 :       0.4545    0.2727    0.2727
  band No.  band energies     occupation 
      1      -4.7475      2.00000
      2      -4.4049      2.00000
      3      -3.4766      2.00000
      4      -3.4766      2.00000
      5      -1.0717      2.00000
      6      -1.0717      2.00000
      7      -0.0228      2.00000
      8       0.3899      2.00000
      9       2.4435      2.00000
     10       2.4435      2.00000
     11       3.5726      2.00000
     12       3.6743      2.00000
     13       3.6743      2.00000
     14       4.0024      2.00000
     15       4.1941      2.00000
     16       4.2656      2.00000
     17       7.8210      0.00000
     18       7.8714      0.00000
     19       8.2687      0.00000
     20       8.2687      0.00000
     21       8.9591      0.00000
     22       9.0994      0.00000
     23       9.0994      0.00000
     24       9.3679      0.00000
     25       9.7548      0.00000

 k-point    50 :       0.3636    0.3636    0.2727
  band No.  band energies     occupation 
      1      -4.8179      2.00000
      2      -3.8803      2.00000
      3      -3.8803      2.00000
      4      -3.5452      2.00000
      5      -1.0876      2.00000
      6      -0.7192      2.00000
      7      -0.7192      2.00000
      8       0.3704      2.00000
      9       2.5931      2.00000
     10       2.9818      2.00000
     11       2.9818      2.00000
     12       3.8875      2.00000
     13       3.8875      2.00000
     14       3.9003      2.00000
     15       4.3262      2.00000
     16       4.7485      2.00000
     17       7.5348      0.00000
     18       7.6769      0.00000
     19       7.8675      0.00000
     20       7.8675      0.00000
     21       9.1057      0.00000
     22       9.2669      0.00000
     23       9.4003      0.00000
     24       9.4003      0.00000
     25       9.9312      0.00000

 k-point    51 :       0.4545    0.3636    0.2727
  band No.  band energies     occupation 
      1      -4.5461      2.00000
      2      -4.2289      2.00000
      3      -3.7379      2.00000
      4      -3.6179      2.00000
      5      -1.0987      2.00000
      6      -0.9679      2.00000
      7      -0.4219      2.00000
      8      -0.0564      2.00000
      9       2.7811      2.00000
     10       2.9250      2.00000
     11       3.5404      2.00000
     12       3.9708      2.00000
     13       3.9865      2.00000
     14       3.9949      2.00000
     15       4.1835      2.00000
     16       4.5304      2.00000
     17       7.7580      0.00000
     18       7.9636      0.00000
     19       7.9831      0.00000
     20       8.2860      0.00000
     21       8.8078      0.00000
     22       8.9674      0.00000
     23       8.9848      0.00000
     24       9.2543      0.00000
     25       9.4846      0.00000

 k-point    52 :       0.4545    0.4545    0.2727
  band No.  band energies     occupation 
      1      -4.3002      2.00000
      2      -4.0233      2.00000
      3      -4.0233      2.00000
      4      -3.8098      2.00000
      5      -0.9872      2.00000
      6      -0.7527      2.00000
      7      -0.7527      2.00000
      8      -0.4433      2.00000
      9       3.0802      2.00000
     10       3.3412      2.00000
     11       3.3412      2.00000
     12       3.6903      2.00000
     13       4.2419      2.00000
     14       4.3076      2.00000
     15       4.3076      2.00000
     16       4.5469      2.00000
     17       7.7963      0.00000
     18       7.9152      0.00000
     19       8.0177      0.00000
     20       8.0177      0.00000
     21       8.9440      0.00000
     22       8.9440      0.00000
     23       9.1770      0.00000
     24       9.2592      0.00000
     25       9.3105      0.00000

 k-point    53 :       0.3636    0.3636    0.3636
  band No.  band energies     occupation 
      1      -4.6157      2.00000
      2      -3.8056      2.00000
      3      -3.8056      2.00000
      4      -3.8056      2.00000
      5      -0.9951      2.00000
      6      -0.9951      2.00000
      7      -0.9951      2.00000
      8      -0.0846      2.00000
      9       3.2547      2.00000
     10       3.2547      2.00000
     11       3.2547      2.00000
     12       4.0495      2.00000
     13       4.0495      2.00000
     14       4.0495      2.00000
     15       4.5912      2.00000
     16       4.5912      2.00000
     17       7.2730      0.00000
     18       7.8071      0.00000
     19       7.8071      0.00000
     20       7.8071      0.00000
     21       9.1269      0.00000
     22       9.1269      0.00000
     23       9.2777      0.00000
     24       9.2777      0.00000
     25       9.2777      0.00000

 k-point    54 :       0.4545    0.3636    0.3636
  band No.  band energies     occupation 
      1      -4.3687      2.00000
      2      -4.0910      2.00000
      3      -3.7569      2.00000
      4      -3.7569      2.00000
      5      -1.1492      2.00000
      6      -1.1492      2.00000
      7      -0.7848      2.00000
      8      -0.4756      2.00000
      9       3.3940      2.00000
     10       3.3940      2.00000
     11       3.8992      2.00000
     12       4.1508      2.00000
     13       4.1508      2.00000
     14       4.2240      2.00000
     15       4.4106      2.00000
     16       4.4124      2.00000
     17       7.4106      0.00000
     18       7.7277      0.00000
     19       7.9333      0.00000
     20       7.9333      0.00000
     21       8.9088      0.00000
     22       8.9088      0.00000
     23       8.9293      0.00000
     24       8.9672      0.00000
     25       9.2680      0.00000

 k-point    55 :       0.4545    0.4545    0.3636
  band No.  band energies     occupation 
      1      -4.1620      2.00000
      2      -3.9479      2.00000
      3      -3.9479      2.00000
      4      -3.8280      2.00000
      5      -1.1783      2.00000
      6      -1.0489      2.00000
      7      -1.0489      2.00000
      8      -0.8154      2.00000
      9       3.7246      2.00000
     10       3.9078      2.00000
     11       3.9078      2.00000
     12       4.2267      2.00000
     13       4.3234      2.00000
     14       4.3515      2.00000
     15       4.3515      2.00000
     16       4.5220      2.00000
     17       7.3619      0.00000
     18       7.6311      0.00000
     19       7.6311      0.00000
     20       7.6982      0.00000
     21       8.9152      0.00000
     22       8.9152      0.00000
     23       8.9877      0.00000
     24       9.0753      0.00000
     25       9.0810      0.00000

 k-point    56 :       0.4545    0.4545    0.4545
  band No.  band energies     occupation 
      1      -4.0185      2.00000
      2      -3.8987      2.00000
      3      -3.8987      2.00000
      4      -3.8987      2.00000
      5      -1.2122      2.00000
      6      -1.2122      2.00000
      7      -1.2122      2.00000
      8      -1.0832      2.00000
      9       4.2586      2.00000
     10       4.2586      2.00000
     11       4.2586      2.00000
     12       4.4050      2.00000
     13       4.4050      2.00000
     14       4.4050      2.00000
     15       4.4742      2.00000
     16       4.4742      2.00000
     17       7.1386      0.00000
     18       7.3192      0.00000
     19       7.3192      0.00000
     20       7.3192      0.00000
     21       8.9643      0.00000
     22       8.9643      0.00000
     23       8.9643      0.00000
     24       9.0263      0.00000
     25       9.0263      0.00000


--------------------------------------------------------------------------------------------------------


 soft charge-density along one line, spin component           1
         0         1         2         3         4         5         6         7         8         9
 total charge-density along one line
 
 pseudopotential strength for first ion, spin component:           1
 18.438  25.724  -0.000   0.000  -0.000  -0.000   0.000  -0.000
 25.724  35.894  -0.000   0.000  -0.000  -0.000   0.000  -0.000
 -0.000  -0.000   4.181   0.000   0.000   7.792   0.000   0.000
  0.000   0.000   0.000   4.181  -0.000   0.000   7.792  -0.000
 -0.000  -0.000   0.000  -0.000   4.181   0.000  -0.000   7.792
 -0.000  -0.000   7.792   0.000   0.000  14.530   0.000   0.000
  0.000   0.000   0.000   7.792  -0.000   0.000  14.530  -0.000
 -0.000  -0.000   0.000  -0.000   7.792   0.000  -0.000  14.530
 total augmentation occupancy for first ion, spin component:           1
  6.048  -2.338   0.000   0.000   0.000  -0.000   0.000   0.000
 -2.338   1.012  -0.000  -0.000  -0.000  -0.000   0.000  -0.000
 -0.000  -0.000   3.396  -0.000   0.000  -0.839   0.000  -0.000
  0.000   0.000  -0.000   3.396  -0.000   0.000  -0.839  -0.000
  0.000   0.000   0.000   0.000   3.396  -0.000  -0.000  -0.839
  0.000  -0.000  -0.839  -0.000  -0.000   0.215   0.000   0.000
  0.000   0.000   0.000  -0.839  -0.000   0.000   0.215  -0.000
  0.000   0.000  -0.000  -0.000  -0.839   0.000   0.000   0.215


------------------------ aborting loop because EDIFF is reached ----------------------------------------


    CHARGE:  cpu time    0.0194: real time    0.0196
    FORLOC:  cpu time    0.0003: real time    0.0003
    FORNL :  cpu time    0.0358: real time    0.0360
    STRESS:  cpu time    0.0724: real time    0.0727
    FORCOR:  cpu time    0.0039: real time    0.0054
    FORHAR:  cpu time    0.0011: real time    0.0011
    MIXING:  cpu time    0.0005: real time    0.0005
    OFIELD:  cpu time    0.0000: real time    0.0000

  FORCE on cell =-STRESS in cart. coord.  units (eV):
  Direction    XX          YY          ZZ          XY          YZ          ZX
  --------------------------------------------------------------------------------------
  Alpha Z    13.19647    13.19647    13.19647
  Ewald    -302.77547  -302.77547  -302.77547     0.00000    -0.00000     0.00000
  Hartree    20.18601    20.18601    20.18601    -0.00000    -0.00000    -0.00000
  E(xc)    -101.11340  -101.11340  -101.11340    -0.00000    -0.00000     0.00000
  Local    -118.52842  -118.52842  -118.52842     0.00000    -0.00000     0.00000
  n-local   310.54655   314.02118   307.40183    -2.95052    -2.30842    -1.51722
  augment   -46.42179   -46.42179   -46.42179    -0.00000     0.00000     0.00000
  Kinetic   217.57775   229.34684   227.41279    -3.72956    -5.28361    -2.55706
  Fock        0.00000     0.00000     0.00000     0.00000     0.00000     0.00000
  -------------------------------------------------------------------------------------
  Total      -0.02096    -0.02096    -0.02096     0.00000    -0.00000     0.00000
  in kB      -0.20566    -0.20566    -0.20566     0.00000    -0.00000     0.00000
  external pressure =       -0.21 kB  Pullay stress =        0.00 kB


 VOLUME and BASIS-vectors are now :
 -----------------------------------------------------------------------------
  energy-cutoff  :      240.00
  volume of cell :      163.26
      direct lattice vectors                 reciprocal lattice vectors
     5.465445378  0.000000000  0.000000000     0.182967705 -0.000000000 -0.000000000
     0.000000000  5.465445378  0.000000000    -0.000000000  0.182967705  0.000000000
     0.000000000  0.000000000  5.465445378    -0.000000000  0.000000000  0.182967705

  length of vectors
     5.465445378  5.465445378  5.465445378     0.182967705  0.182967705  0.182967705


 FORCES acting on ions
    electron-ion (+dipol)            ewald-force                    non-local-force                 convergence-correction
 -----------------------------------------------------------------------------------------------
   -.152E-13 -.586E-16 -.340E-14   0.284E-13 0.142E-13 0.000E+00   0.139E-16 -.477E-17 -.520E-17   0.277E-14 0.682E-15 -.158E-14
   -.113E-13 -.103E-13 -.206E-13   0.284E-13 0.142E-13 0.355E-14   0.954E-17 0.338E-16 0.113E-16   0.252E-14 0.283E-16 -.237E-14
   -.364E-13 0.376E-15 0.337E-12   0.284E-13 0.142E-13 0.355E-14   -.434E-17 -.260E-17 0.165E-16   -.272E-14 0.853E-15 -.253E-14
   -.339E-13 0.129E-12 0.171E-12   0.284E-13 0.142E-13 0.000E+00   -.144E-20 0.160E-16 0.156E-16   -.240E-14 -.315E-15 -.148E-14
   -.268E-14 0.117E-12 -.207E-13   -.282E-13 -.138E-13 -.396E-14   0.781E-17 0.117E-16 -.520E-17   0.649E-14 0.129E-14 -.452E-14
   -.707E-14 -.319E-12 0.382E-12   -.288E-13 -.126E-13 -.395E-14   -.165E-16 -.221E-16 0.156E-16   -.378E-14 0.191E-14 -.447E-14
   -.712E-14 -.104E-12 0.138E-12   -.274E-13 -.159E-13 -.309E-14   -.347E-16 -.178E-16 -.113E-16   -.395E-14 0.159E-14 0.794E-14
   -.741E-15 0.810E-13 -.212E-13   -.293E-13 -.147E-13 -.308E-14   -.173E-17 0.217E-17 -.260E-17   0.603E-14 0.222E-14 0.772E-14
 -----------------------------------------------------------------------------------------------
   -.114E-12 -.106E-12 0.963E-12   -.134E-16 -.143E-15 -.696E-14   -.260E-16 0.165E-16 0.347E-16   0.496E-14 0.826E-14 -.128E-14
 
 
 POSITION                                       TOTAL-FORCE (eV/Angst)
 -----------------------------------------------------------------------------------
      0.00000      0.00000     -0.00000        -0.000000      0.000000      0.000000
      0.00000      2.73272      2.73272        -0.000000     -0.000000     -0.000000
      2.73272      0.00000      2.73272        -0.000000     -0.000000     -0.000000
      2.73272      2.73272      0.00000        -0.000000      0.000000      0.000000
      1.36636      1.36636      1.36636         0.000000     -0.000000     -0.000000
      4.09908      4.09908      1.36636         0.000000     -0.000000      0.000000
      4.09908      1.36636      4.09908         0.000000      0.000000      0.000000
      1.36636      4.09908      4.09908         0.000000      0.000000      0.000000
 -----------------------------------------------------------------------------------
    total drift:                               -0.000000     -0.000000      0.000000


--------------------------------------------------------------------------------------------------------



  FREE ENERGIE OF THE ION-ELECTRON SYSTEM (eV)
  ---------------------------------------------------
  free  energy   TOTEN  =       -43.29557034 eV

  energy  without entropy=      -43.29557031  energy(sigma->0) =      -43.29557032
 
 d Force = 0.0000000E+00[ 0.000E+00, 0.000E+00]  d Energy = 0.8357701E-01-0.836E-01
 d Force = 0.0000000E+00[ 0.000E+00, 0.000E+00]  d Ewald  = 0.1301849E+02-0.130E+02


--------------------------------------------------------------------------------------------------------


    POTLOK:  cpu time    0.0057: real time    0.0057


--------------------------------------------------------------------------------------------------------




--------------------------------------------------------------------------------------------------------


  
 reached required accuracy - stopping structural energy minimisation
 writing wavefunctions
     LOOP+:  cpu time    3.3756: real time    3.5377
    4ORBIT:  cpu time    0.0000: real time    0.0000

 total amount of memory used by VASP on root node    32094. kBytes
========================================================================

   base      :      30000. kBytes
   nonl-proj :        668. kBytes
   fftplans  :        243. kBytes
   grid      :        329. kBytes
   one-center:          3. kBytes
   wavefun   :        851. kBytes
 
  
  
 General timing and accounting informations for this job:
 ========================================================
  
                  Total CPU time used (sec):       12.798
                            User time (sec):       12.254
                          System time (sec):        0.543
                         Elapsed time (sec):       13.672
  
                   Maximum memory used (kb):      128152.
                   Average memory used (kb):           0.
  
                          Minor page faults:        24988
                          Major page faults:            0
                 Voluntary context switches:         1593
