<?xml version="1.0" encoding="ISO-8859-1"?>
<modeling>
 <generator>
  <i name="program" type="string">vasp </i>
  <i name="version" type="string">5.4.1  </i>
  <i name="subversion" type="string">05Feb16 (build Feb 24 2020 14:33:01) complex                          parallel </i>
  <i name="platform" type="string">IFC91_ompi </i>
  <i name="date" type="string">2020 02 27 </i>
  <i name="time" type="string">21:54:19 </i>
 </generator>
 <incar>
  <i type="string" name="SYSTEM"> diamond Si</i>
  <i type="int" name="ISTART">     0</i>
  <i type="string" name="PREC">accurate</i>
  <i type="int" name="NSIM">     4</i>
  <i type="int" name="ICHARG">     2</i>
  <i type="int" name="NELM">    60</i>
  <i type="int" name="NELMDL">     3</i>
  <i type="int" name="NELMIN">     0</i>
  <i type="int" name="IBRION">     2</i>
  <i name="EDIFF">      0.00010000</i>
  <i name="EDIFFG">     -0.01000000</i>
  <i type="int" name="NSW">     9</i>
  <i type="int" name="ISIF">     3</i>
  <i name="ENCUT">    240.00000000</i>
  <i name="POTIM">      1.00000000</i>
  <i type="logical" name="LPLANE"> F  </i>
  <i type="int" name="ISMEAR">     0</i>
  <i name="SIGMA">      0.10000000</i>
  <v type="int" name="KPOINT_BSE">    -1     0     0     0</v>
  <i type="int" name="NELM">    60</i>
 </incar>
 <kpoints>
  <generation param="Monkhorst-Pack">
   <v type="int" name="divisions">      11       11       11 </v>
   <v name="usershift">      0.00000000       0.00000000       0.00000000 </v>
   <v name="genvec1">      0.09090909       0.00000000       0.00000000 </v>
   <v name="genvec2">      0.00000000       0.09090909       0.00000000 </v>
   <v name="genvec3">      0.00000000       0.00000000       0.09090909 </v>
   <v name="shift">      0.00000000       0.00000000       0.00000000 </v>
  </generation>
  <varray name="kpointlist" >
   <v>       0.00000000       0.00000000       0.00000000 </v>
   <v>       0.09090909       0.00000000       0.00000000 </v>
   <v>       0.18181818       0.00000000       0.00000000 </v>
   <v>       0.27272727       0.00000000       0.00000000 </v>
   <v>       0.36363636       0.00000000       0.00000000 </v>
   <v>       0.45454545       0.00000000       0.00000000 </v>
   <v>       0.09090909       0.09090909       0.00000000 </v>
   <v>       0.18181818       0.09090909       0.00000000 </v>
   <v>       0.27272727       0.09090909       0.00000000 </v>
   <v>       0.36363636       0.09090909       0.00000000 </v>
   <v>       0.45454545       0.09090909       0.00000000 </v>
   <v>       0.18181818       0.18181818       0.00000000 </v>
   <v>       0.27272727       0.18181818       0.00000000 </v>
   <v>       0.36363636       0.18181818       0.00000000 </v>
   <v>       0.45454545       0.18181818       0.00000000 </v>
   <v>       0.27272727       0.27272727       0.00000000 </v>
   <v>       0.36363636       0.27272727       0.00000000 </v>
   <v>       0.45454545       0.27272727       0.00000000 </v>
   <v>       0.36363636       0.36363636       0.00000000 </v>
   <v>       0.45454545       0.36363636       0.00000000 </v>
   <v>       0.45454545       0.45454545       0.00000000 </v>
   <v>       0.09090909       0.09090909       0.09090909 </v>
   <v>       0.18181818       0.09090909       0.09090909 </v>
   <v>       0.27272727       0.09090909       0.09090909 </v>
   <v>       0.36363636       0.09090909       0.09090909 </v>
   <v>       0.45454545       0.09090909       0.09090909 </v>
   <v>       0.18181818       0.18181818       0.09090909 </v>
   <v>       0.27272727       0.18181818       0.09090909 </v>
   <v>       0.36363636       0.18181818       0.09090909 </v>
   <v>       0.45454545       0.18181818       0.09090909 </v>
   <v>       0.27272727       0.27272727       0.09090909 </v>
   <v>       0.36363636       0.27272727       0.09090909 </v>
   <v>       0.45454545       0.27272727       0.09090909 </v>
   <v>       0.36363636       0.36363636       0.09090909 </v>
   <v>       0.45454545       0.36363636       0.09090909 </v>
   <v>       0.45454545       0.45454545       0.09090909 </v>
   <v>       0.18181818       0.18181818       0.18181818 </v>
   <v>       0.27272727       0.18181818       0.18181818 </v>
   <v>       0.36363636       0.18181818       0.18181818 </v>
   <v>       0.45454545       0.18181818       0.18181818 </v>
   <v>       0.27272727       0.27272727       0.18181818 </v>
   <v>       0.36363636       0.27272727       0.18181818 </v>
   <v>       0.45454545       0.27272727       0.18181818 </v>
   <v>       0.36363636       0.36363636       0.18181818 </v>
   <v>       0.45454545       0.36363636       0.18181818 </v>
   <v>       0.45454545       0.45454545       0.18181818 </v>
   <v>       0.27272727       0.27272727       0.27272727 </v>
   <v>       0.36363636       0.27272727       0.27272727 </v>
   <v>       0.45454545       0.27272727       0.27272727 </v>
   <v>       0.36363636       0.36363636       0.27272727 </v>
   <v>       0.45454545       0.36363636       0.27272727 </v>
   <v>       0.45454545       0.45454545       0.27272727 </v>
   <v>       0.36363636       0.36363636       0.36363636 </v>
   <v>       0.45454545       0.36363636       0.36363636 </v>
   <v>       0.45454545       0.45454545       0.36363636 </v>
   <v>       0.45454545       0.45454545       0.45454545 </v>
  </varray>
  <varray name="weights" >
   <v>       0.00075131 </v>
   <v>       0.00450789 </v>
   <v>       0.00450789 </v>
   <v>       0.00450789 </v>
   <v>       0.00450789 </v>
   <v>       0.00450789 </v>
   <v>       0.00901578 </v>
   <v>       0.01803156 </v>
   <v>       0.01803156 </v>
   <v>       0.01803156 </v>
   <v>       0.01803156 </v>
   <v>       0.00901578 </v>
   <v>       0.01803156 </v>
   <v>       0.01803156 </v>
   <v>       0.01803156 </v>
   <v>       0.00901578 </v>
   <v>       0.01803156 </v>
   <v>       0.01803156 </v>
   <v>       0.00901578 </v>
   <v>       0.01803156 </v>
   <v>       0.00901578 </v>
   <v>       0.00601052 </v>
   <v>       0.01803156 </v>
   <v>       0.01803156 </v>
   <v>       0.01803156 </v>
   <v>       0.01803156 </v>
   <v>       0.01803156 </v>
   <v>       0.03606311 </v>
   <v>       0.03606311 </v>
   <v>       0.03606311 </v>
   <v>       0.01803156 </v>
   <v>       0.03606311 </v>
   <v>       0.03606311 </v>
   <v>       0.01803156 </v>
   <v>       0.03606311 </v>
   <v>       0.01803156 </v>
   <v>       0.00601052 </v>
   <v>       0.01803156 </v>
   <v>       0.01803156 </v>
   <v>       0.01803156 </v>
   <v>       0.01803156 </v>
   <v>       0.03606311 </v>
   <v>       0.03606311 </v>
   <v>       0.01803156 </v>
   <v>       0.03606311 </v>
   <v>       0.01803156 </v>
   <v>       0.00601052 </v>
   <v>       0.01803156 </v>
   <v>       0.01803156 </v>
   <v>       0.01803156 </v>
   <v>       0.03606311 </v>
   <v>       0.01803156 </v>
   <v>       0.00601052 </v>
   <v>       0.01803156 </v>
   <v>       0.01803156 </v>
   <v>       0.00601052 </v>
  </varray>
 </kpoints>
 <parameters>
  <separator name="general" >
   <i type="string" name="SYSTEM">diamond Si</i>
   <i type="logical" name="LCOMPAT"> F  </i>
  </separator>
  <separator name="electronic" >
   <i type="string" name="PREC">accura</i>
   <i name="ENMAX">    240.00000000</i>
   <i name="ENAUG">    322.06900000</i>
   <i name="EDIFF">      0.00010000</i>
   <i type="int" name="IALGO">    38</i>
   <i type="int" name="IWAVPR">    11</i>
   <i type="int" name="NBANDS">    25</i>
   <i name="NELECT">     32.00000000</i>
   <i type="int" name="TURBO">     0</i>
   <i type="int" name="IRESTART">     0</i>
   <i type="int" name="NREBOOT">     0</i>
   <i type="int" name="NMIN">     0</i>
   <i name="EREF">      0.00000000</i>
   <separator name="electronic smearing" >
    <i type="int" name="ISMEAR">     0</i>
    <i name="SIGMA">      0.10000000</i>
    <i name="KSPACING">      0.50000000</i>
    <i type="logical" name="KGAMMA"> T  </i>
   </separator>
   <separator name="electronic projectors" >
    <i type="logical" name="LREAL"> F  </i>
    <v name="ROPT">      0.00000000</v>
    <i type="int" name="LMAXPAW">  -100</i>
    <i type="int" name="LMAXMIX">     2</i>
    <i type="logical" name="NLSPLINE"> F  </i>
   </separator>
   <separator name="electronic startup" >
    <i type="int" name="ISTART">     0</i>
    <i type="int" name="ICHARG">     2</i>
    <i type="int" name="INIWAV">     1</i>
   </separator>
   <separator name="electronic spin" >
    <i type="int" name="ISPIN">     1</i>
    <i type="logical" name="LNONCOLLINEAR"> F  </i>
    <v name="MAGMOM">      1.00000000      1.00000000      1.00000000      1.00000000      1.00000000      1.00000000      1.00000000      1.00000000</v>
    <i name="NUPDOWN">     -1.00000000</i>
    <i type="logical" name="LSORBIT"> F  </i>
    <v name="SAXIS">      0.00000000      0.00000000      1.00000000</v>
    <i type="logical" name="LSPIRAL"> F  </i>
    <v name="QSPIRAL">      0.00000000      0.00000000      0.00000000</v>
    <i type="logical" name="LZEROZ"> F  </i>
   </separator>
   <separator name="electronic exchange-correlation" >
    <i type="logical" name="LASPH"> F  </i>
    <i type="logical" name="LMETAGGA"> F  </i>
   </separator>
   <separator name="electronic convergence" >
    <i type="int" name="NELM">    60</i>
    <i type="int" name="NELMDL">     3</i>
    <i type="int" name="NELMIN">     0</i>
    <i name="ENINI">    240.00000000</i>
    <separator name="electronic convergence detail" >
     <i type="logical" name="LDIAG"> T  </i>
     <i type="logical" name="LSUBROT"> F  </i>
     <i name="WEIMIN">      0.00100000</i>
     <i name="EBREAK">      0.00000100</i>
     <i name="DEPER">      0.30000000</i>
     <i type="int" name="NRMM">     4</i>
     <i name="TIME">      0.40000000</i>
    </separator>
   </separator>
   <separator name="electronic mixer" >
    <i name="AMIX">      0.40000000</i>
    <i name="BMIX">      1.00000000</i>
    <i name="AMIN">      0.10000000</i>
    <i name="AMIX_MAG">      1.60000000</i>
    <i name="BMIX_MAG">      1.00000000</i>
    <separator name="electronic mixer details" >
     <i type="int" name="IMIX">     4</i>
     <i type="logical" name="MIXFIRST"> F  </i>
     <i type="int" name="MAXMIX">   -45</i>
     <i name="WC">    100.00000000</i>
     <i type="int" name="INIMIX">     1</i>
     <i type="int" name="MIXPRE">     1</i>
     <i type="int" name="MREMOVE">     5</i>
    </separator>
   </separator>
   <separator name="electronic dipolcorrection" >
    <i type="logical" name="LDIPOL"> F  </i>
    <i type="logical" name="LMONO"> F  </i>
    <i type="int" name="IDIPOL">     0</i>
    <i name="EPSILON">      1.00000000</i>
    <v name="DIPOL">   -100.00000000   -100.00000000   -100.00000000</v>
    <i name="EFIELD">      0.00000000</i>
   </separator>
  </separator>
  <separator name="grids" >
   <i type="int" name="NGX">    28</i>
   <i type="int" name="NGY">    28</i>
   <i type="int" name="NGZ">    28</i>
   <i type="int" name="NGXF">    56</i>
   <i type="int" name="NGYF">    56</i>
   <i type="int" name="NGZF">    56</i>
   <i type="logical" name="ADDGRID"> F  </i>
  </separator>
  <separator name="ionic" >
   <i type="int" name="NSW">     9</i>
   <i type="int" name="IBRION">     2</i>
   <i type="int" name="ISIF">     3</i>
   <i name="PSTRESS">      0.00000000</i>
   <i name="EDIFFG">     -0.01000000</i>
   <i type="int" name="NFREE">     1</i>
   <i name="POTIM">      1.00000000</i>
   <i name="SMASS">     -3.00000000</i>
   <i name="SCALEE">      1.00000000</i>
  </separator>
  <separator name="ionic md" >
   <i name="TEBEG">      0.00010000</i>
   <i name="TEEND">      0.00010000</i>
   <i type="int" name="NBLOCK">     1</i>
   <i type="int" name="KBLOCK">     9</i>
   <i type="int" name="NPACO">   256</i>
   <i name="APACO">     16.00000000</i>
  </separator>
  <separator name="symmetry" >
   <i type="int" name="ISYM">     2</i>
   <i name="SYMPREC">      0.00001000</i>
  </separator>
  <separator name="dos" >
   <i type="logical" name="LORBIT"> F  </i>
   <v name="RWIGS">     -1.00000000</v>
   <i type="int" name="NEDOS">   301</i>
   <i name="EMIN">     10.00000000</i>
   <i name="EMAX">    -10.00000000</i>
   <i name="EFERMI">      0.00000000</i>
  </separator>
  <separator name="writing" >
   <i type="int" name="NWRITE">     2</i>
   <i type="logical" name="LWAVE"> T  </i>
   <i type="logical" name="LCHARG"> T  </i>
   <i type="logical" name="LPARD"> F  </i>
   <i type="logical" name="LVTOT"> F  </i>
   <i type="logical" name="LVHAR"> F  </i>
   <i type="logical" name="LELF"> F  </i>
   <i type="logical" name="LOPTICS"> F  </i>
   <v name="STM">      0.00000000      0.00000000      0.00000000      0.00000000      0.00000000      0.00000000      0.00000000</v>
  </separator>
  <separator name="performance" >
   <i type="int" name="NPAR">     5</i>
   <i type="int" name="NSIM">     4</i>
   <i type="int" name="NBLK">    -1</i>
   <i type="logical" name="LPLANE"> F  </i>
   <i type="logical" name="LSCALAPACK"> T  </i>
   <i type="logical" name="LSCAAWARE"> F  </i>
   <i type="logical" name="LSCALU"> F  </i>
   <i type="logical" name="LASYNC"> F  </i>
   <i type="logical" name="LORBITALREAL"> F  </i>
  </separator>
  <separator name="miscellaneous" >
   <i type="int" name="IDIOT">     3</i>
   <i type="logical" name="LMUSIC"> F  </i>
   <v name="POMASS">     28.08500000</v>
   <v name="DARWINR">      0.00000000</v>
   <v name="DARWINV">      1.00000000</v>
   <i type="logical" name="LCORR"> T  </i>
  </separator>
  <i type="logical" name="GGA_COMPAT"> T  </i>
  <i type="logical" name="LBERRY"> F  </i>
  <i type="int" name="ICORELEVEL">     0</i>
  <i type="logical" name="LDAU"> F  </i>
  <i type="int" name="I_CONSTRAINED_M">     0</i>
  <separator name="electronic exchange-correlation" >
   <i type="string" name="GGA">--</i>
   <i type="int" name="VOSKOWN">     0</i>
   <i type="logical" name="LHFCALC"> F  </i>
   <i type="string" name="PRECFOCK"></i>
   <i type="logical" name="LSYMGRAD"> F  </i>
   <i type="logical" name="LHFONE"> F  </i>
   <i type="logical" name="LRHFCALC"> F  </i>
   <i type="logical" name="LTHOMAS"> F  </i>
   <i type="logical" name="LMODELHF"> F  </i>
   <i name="ENCUT4O">     -1.00000000</i>
   <i type="int" name="EXXOEP">     0</i>
   <i type="int" name="FOURORBIT">     0</i>
   <i name="AEXX">      0.00000000</i>
   <i name="HFALPHA">      0.00000000</i>
   <i name="MCALPHA">      0.00000000</i>
   <i name="ALDAX">      1.00000000</i>
   <i name="AGGAX">      1.00000000</i>
   <i name="ALDAC">      1.00000000</i>
   <i name="AGGAC">      1.00000000</i>
   <i type="int" name="NKREDX">     1</i>
   <i type="int" name="NKREDY">     1</i>
   <i type="int" name="NKREDZ">     1</i>
   <i type="logical" name="SHIFTRED"> F  </i>
   <i type="logical" name="ODDONLY"> F  </i>
   <i type="logical" name="EVENONLY"> F  </i>
   <i type="int" name="LMAXFOCK">     0</i>
   <i type="int" name="NMAXFOCKAE">     0</i>
   <i type="logical" name="LFOCKAEDFT"> F  </i>
   <i name="HFSCREEN">      0.00000000</i>
   <i name="HFSCREENC">      0.00000000</i>
   <i type="int" name="NBANDSGWLOW">     0</i>
  </separator>
  <separator name="vdW DFT" >
   <i type="logical" name="LUSE_VDW"> F  </i>
   <i name="Zab_VDW">     -0.84910000</i>
   <i name="PARAM1">      0.12340000</i>
   <i name="PARAM2">      1.00000000</i>
   <i name="PARAM3">      0.00000000</i>
  </separator>
  <separator name="model GW" >
   <i type="int" name="MODEL_GW">     0</i>
   <i name="MODEL_EPS0">     12.01436085</i>
   <i name="MODEL_ALPHA">      1.00000000</i>
  </separator>
  <separator name="linear response parameters" >
   <i type="logical" name="LEPSILON"> F  </i>
   <i type="logical" name="LRPA"> F  </i>
   <i type="logical" name="LNABLA"> F  </i>
   <i type="logical" name="LVEL"> F  </i>
   <i type="int" name="KINTER">     0</i>
   <i name="CSHIFT">      0.10000000</i>
   <i name="OMEGAMAX">     -1.00000000</i>
   <i name="DEG_THRESHOLD">      0.00200000</i>
  </separator>
  <separator name="orbital magnetization" >
   <i type="logical" name="NUCIND"> F  </i>
   <v name="MAGPOS">      0.00000000      0.00000000      0.00000000</v>
   <i type="logical" name="LNICSALL"> T  </i>
   <i type="logical" name="ORBITALMAG"> F  </i>
   <i type="logical" name="LMAGBLOCH"> F  </i>
   <i type="logical" name="LCHIMAG"> F  </i>
   <i type="logical" name="LGAUGE"> T  </i>
   <i type="int" name="MAGATOM">     0</i>
   <v name="MAGDIPOL">      0.00000000      0.00000000      0.00000000</v>
   <v name="AVECCONST">      0.00000000      0.00000000      0.00000000</v>
  </separator>
  <separator name="response functions" >
   <i type="logical" name="LADDER"> F  </i>
   <i type="logical" name="LFXC"> F  </i>
   <i type="logical" name="LHARTREE"> T  </i>
   <i type="int" name="IBSE">     0</i>
   <v type="int" name="KPOINT">    -1     0     0     0</v>
   <i type="logical" name="LTCTE"> F  </i>
   <i type="logical" name="LTETE"> F  </i>
   <i type="logical" name="LTRIPLET"> F  </i>
   <i type="logical" name="LFXCEPS"> F  </i>
   <i type="logical" name="LFXHEG"> F  </i>
   <i type="int" name="NATURALO">     0</i>
   <i type="logical" name="L2ORDER"> F  </i>
   <i type="logical" name="LUSEW"> F  </i>
   <i name="ENCUTGW">     -2.00000000</i>
   <i name="ENCUTGWSOFT">     -2.00000000</i>
   <i name="ENCUTLF">     -1.00000000</i>
   <i type="int" name="LMAXMP2">    -1</i>
   <i name="SCISSOR">      0.00000000</i>
   <i type="int" name="NOMEGA">     0</i>
   <i type="int" name="NOMEGAR">     0</i>
   <i type="int" name="NBANDSGW">    -1</i>
   <i type="int" name="NBANDSO">    -1</i>
   <i type="int" name="NBANDSV">    -1</i>
   <i type="int" name="NELM">    60</i>
   <i type="int" name="NELMHF">     1</i>
   <i type="int" name="DIM">     3</i>
   <i type="int" name="ANTIRES">     0</i>
   <i name="OMEGAMAX">    -30.00000000</i>
   <i name="OMEGAMIN">    -30.00000000</i>
   <i name="OMEGATL">   -200.00000000</i>
   <i type="int" name="OMEGAGRID">     0</i>
   <i name="CSHIFT">     -0.10000000</i>
   <i type="logical" name="SELFENERGY"> F  </i>
   <i type="logical" name="LSPECTRAL"> F  </i>
   <i type="logical" name="LSPECTRALGW"> F  </i>
   <i type="logical" name="LSINGLES"> F  </i>
   <i type="logical" name="LFERMIGW"> F  </i>
   <i type="logical" name="ODDONLYGW"> F  </i>
   <i type="logical" name="EVENONLYGW"> F  </i>
   <i type="int" name="NKREDLFX">     1</i>
   <i type="int" name="NKREDLFY">     1</i>
   <i type="int" name="NKREDLFZ">     1</i>
   <i type="int" name="MAXMEM">  1800</i>
   <i type="int" name="TELESCOPE">     0</i>
   <i type="int" name="TAUPAR">     1</i>
   <i type="int" name="OMEGAPAR">    -1</i>
   <i name="LAMBDA">      1.00000000</i>
  </separator>
  <separator name="External order field" >
   <i name="OFIELD_KAPPA">      0.00000000</i>
   <v name="OFIELD_K">      0.00000000      0.00000000      0.00000000</v>
   <i name="OFIELD_Q6_NEAR">      0.00000000</i>
   <i name="OFIELD_Q6_FAR">      0.00000000</i>
   <i name="OFIELD_A">      0.00000000</i>
  </separator>
 </parameters>
 <atominfo>
  <atoms>       8 </atoms>
  <types>       1 </types>
  <array name="atoms" >
   <dimension dim="1">ion</dimension>
   <field type="string">element</field>
   <field type="int">atomtype</field>
   <set>
    <rc><c>Si</c><c>   1</c></rc>
    <rc><c>Si</c><c>   1</c></rc>
    <rc><c>Si</c><c>   1</c></rc>
    <rc><c>Si</c><c>   1</c></rc>
    <rc><c>Si</c><c>   1</c></rc>
    <rc><c>Si</c><c>   1</c></rc>
    <rc><c>Si</c><c>   1</c></rc>
    <rc><c>Si</c><c>   1</c></rc>
   </set>
  </array>
  <array name="atomtypes" >
   <dimension dim="1">type</dimension>
   <field type="int">atomspertype</field>
   <field type="string">element</field>
   <field>mass</field>
   <field>valence</field>
   <field type="string">pseudopotential</field>
   <set>
    <rc><c>   8</c><c>Si</c><c>     28.08500000</c><c>      4.00000000</c><c>  PAW_PBE Si 05Jan2001                  </c></rc>
   </set>
  </array>
 </atominfo>
 <structure name="initialpos" >
  <crystal>
   <varray name="basis" >
    <v>       5.43100000       0.00000000       0.00000000 </v>
    <v>       0.00000000       5.43100000       0.00000000 </v>
    <v>       0.00000000       0.00000000       5.43100000 </v>
   </varray>
   <i name="volume">    160.19147799 </i>
   <varray name="rec_basis" >
    <v>       0.18412815       0.00000000       0.00000000 </v>
    <v>       0.00000000       0.18412815       0.00000000 </v>
    <v>       0.00000000       0.00000000       0.18412815 </v>
   </varray>
  </crystal>
  <varray name="positions" >
   <v>       0.00000000       0.00000000       0.00000000 </v>
   <v>       0.00000000       0.50000000       0.50000000 </v>
   <v>       0.50000000       0.00000000       0.50000000 </v>
   <v>       0.50000000       0.50000000       0.00000000 </v>
   <v>       0.25000000       0.25000000       0.25000000 </v>
   <v>       0.75000000       0.75000000       0.25000000 </v>
   <v>       0.75000000       0.25000000       0.75000000 </v>
   <v>       0.25000000       0.75000000       0.75000000 </v>
  </varray>
 </structure>
 <calculation>
  <scstep>
   <time name="dav">    0.65    0.69</time>
   <time name="total">    0.66    0.70</time>
   <energy>
    <i name="alphaZ">     13.44915721 </i>
    <i name="ewald">   -914.08579262 </i>
    <i name="hartreedc">    -44.03749844 </i>
    <i name="XCdc">    -74.41614067 </i>
    <i name="pawpsdc">    704.99039692 </i>
    <i name="pawaedc">   -564.24414232 </i>
    <i name="eentropy">     -0.00996770 </i>
    <i name="bandstr">     84.03651617 </i>
    <i name="atom">    824.48621262 </i>
    <i name="e_fr_energy">     30.16874118 </i>
    <i name="e_wo_entrp">     30.17870887 </i>
    <i name="e_0_energy">     30.17372502 </i>
   </energy>
  </scstep>
  <scstep>
   <time name="dav">    0.50    0.51</time>
   <time name="total">    0.51    0.52</time>
   <energy>
    <i name="e_fr_energy">    -41.27985995 </i>
    <i name="e_wo_entrp">    -41.27985985 </i>
    <i name="e_0_energy">    -41.27985990 </i>
   </energy>
  </scstep>
  <scstep>
   <time name="dav">    0.49    0.49</time>
   <time name="total">    0.51    0.51</time>
   <energy>
    <i name="e_fr_energy">    -43.96995541 </i>
    <i name="e_wo_entrp">    -43.96995541 </i>
    <i name="e_0_energy">    -43.96995541 </i>
   </energy>
  </scstep>
  <scstep>
   <time name="dav">    0.49    0.49</time>
   <time name="total">    0.51    0.52</time>
   <energy>
    <i name="e_fr_energy">    -43.50151102 </i>
    <i name="e_wo_entrp">    -43.50151102 </i>
    <i name="e_0_energy">    -43.50151102 </i>
   </energy>
  </scstep>
  <scstep>
   <time name="dav">    0.45    0.45</time>
   <time name="total">    0.47    0.48</time>
   <energy>
    <i name="e_fr_energy">    -43.27317019 </i>
    <i name="e_wo_entrp">    -43.27316995 </i>
    <i name="e_0_energy">    -43.27317007 </i>
   </energy>
  </scstep>
  <scstep>
   <time name="dav">    0.49    0.49</time>
   <time name="total">    0.51    0.52</time>
   <energy>
    <i name="e_fr_energy">    -43.27778594 </i>
    <i name="e_wo_entrp">    -43.27778577 </i>
    <i name="e_0_energy">    -43.27778585 </i>
   </energy>
  </scstep>
  <scstep>
   <time name="dav">    0.44    0.44</time>
   <time name="total">    0.46    0.47</time>
   <energy>
    <i name="e_fr_energy">    -43.27935827 </i>
    <i name="e_wo_entrp">    -43.27935816 </i>
    <i name="e_0_energy">    -43.27935822 </i>
   </energy>
  </scstep>
  <scstep>
   <time name="dav">    0.42    0.42</time>
   <time name="total">    0.45    0.45</time>
   <energy>
    <i name="e_fr_energy">    -43.27945941 </i>
    <i name="e_wo_entrp">    -43.27945930 </i>
    <i name="e_0_energy">    -43.27945936 </i>
   </energy>
  </scstep>
  <scstep>
   <time name="dav">    0.38    0.38</time>
   <time name="total">    0.39    0.39</time>
   <energy>
    <i name="alphaZ">     13.44915721 </i>
    <i name="ewald">   -914.08579262 </i>
    <i name="hartreedc">    -59.65407952 </i>
    <i name="XCdc">    -71.81904204 </i>
    <i name="pawpsdc">   4211.09596536 </i>
    <i name="pawaedc">  -4071.27614333 </i>
    <i name="eentropy">     -0.00000011 </i>
    <i name="bandstr">     24.52420982 </i>
    <i name="atom">    824.48621262 </i>
    <i name="e_fr_energy">    -43.27951262 </i>
    <i name="e_wo_entrp">    -43.27951251 </i>
    <i name="e_0_energy">    -43.27951256 </i>
   </energy>
  </scstep>
  <structure>
   <crystal>
    <varray name="basis" >
     <v>       5.43100000       0.00000000       0.00000000 </v>
     <v>       0.00000000       5.43100000       0.00000000 </v>
     <v>       0.00000000       0.00000000       5.43100000 </v>
    </varray>
    <i name="volume">    160.19147799 </i>
    <varray name="rec_basis" >
     <v>       0.18412815       0.00000000       0.00000000 </v>
     <v>       0.00000000       0.18412815       0.00000000 </v>
     <v>       0.00000000       0.00000000       0.18412815 </v>
    </varray>
   </crystal>
   <varray name="positions" >
    <v>       0.00000000       0.00000000       0.00000000 </v>
    <v>       0.00000000       0.50000000       0.50000000 </v>
    <v>       0.50000000       0.00000000       0.50000000 </v>
    <v>       0.50000000       0.50000000       0.00000000 </v>
    <v>       0.25000000       0.25000000       0.25000000 </v>
    <v>       0.75000000       0.75000000       0.25000000 </v>
    <v>       0.75000000       0.25000000       0.75000000 </v>
    <v>       0.25000000       0.75000000       0.75000000 </v>
   </varray>
  </structure>
  <varray name="forces" >
   <v>       0.00000000       0.00000000      -0.00000000 </v>
   <v>      -0.00000000      -0.00000000      -0.00000000 </v>
   <v>      -0.00000000       0.00000000      -0.00000000 </v>
   <v>      -0.00000000      -0.00000000      -0.00000000 </v>
   <v>       0.00000000       0.00000000       0.00000000 </v>
   <v>      -0.00000000      -0.00000000       0.00000000 </v>
   <v>       0.00000000       0.00000000       0.00000000 </v>
   <v>       0.00000000      -0.00000000       0.00000000 </v>
  </varray>
  <varray name="stress" >
   <v>      17.39444183       0.00000000       0.00000000 </v>
   <v>       0.00000000      17.39444183       0.00000000 </v>
   <v>       0.00000000       0.00000000      17.39444183 </v>
  </varray>
  <energy>
   <i name="e_fr_energy">    -43.27951262 </i>
   <i name="e_wo_entrp">    -43.27951256 </i>
   <i name="e_0_energy">     -0.00000011 </i>
  </energy>
  <time name="totalsc">    4.77    4.87</time>
 </calculation>
 <calculation>
  <scstep>
   <time name="dav">    0.44    0.44</time>
   <time name="total">    0.44    0.45</time>
   <energy>
    <i name="alphaZ">     12.63715229 </i>
    <i name="ewald">   -895.30637154 </i>
    <i name="hartreedc">    -58.43062034 </i>
    <i name="XCdc">    -73.03801085 </i>
    <i name="pawpsdc">   4215.25455053 </i>
    <i name="pawaedc">  -4075.43431822 </i>
    <i name="eentropy">     -0.00000000 </i>
    <i name="bandstr">      6.53859690 </i>
    <i name="atom">    824.48621262 </i>
    <i name="e_fr_energy">    -43.29280862 </i>
    <i name="e_wo_entrp">    -43.29280862 </i>
    <i name="e_0_energy">    -43.29280862 </i>
   </energy>
  </scstep>
  <scstep>
   <time name="dav">    0.47    0.47</time>
   <time name="total">    0.47    0.48</time>
   <energy>
    <i name="e_fr_energy">    -43.29874875 </i>
    <i name="e_wo_entrp">    -43.29874875 </i>
    <i name="e_0_energy">    -43.29874875 </i>
   </energy>
  </scstep>
  <scstep>
   <time name="dav">    0.47    0.48</time>
   <time name="total">    0.50    0.50</time>
   <energy>
    <i name="e_fr_energy">    -43.29879367 </i>
    <i name="e_wo_entrp">    -43.29879367 </i>
    <i name="e_0_energy">    -43.29879367 </i>
   </energy>
  </scstep>
  <scstep>
   <time name="dav">    0.41    0.41</time>
   <time name="total">    0.44    0.44</time>
   <energy>
    <i name="e_fr_energy">    -43.24079911 </i>
    <i name="e_wo_entrp">    -43.24079911 </i>
    <i name="e_0_energy">    -43.24079911 </i>
   </energy>
  </scstep>
  <scstep>
   <time name="dav">    0.44    0.44</time>
   <time name="total">    0.47    0.47</time>
   <energy>
    <i name="e_fr_energy">    -43.21227081 </i>
    <i name="e_wo_entrp">    -43.21227081 </i>
    <i name="e_0_energy">    -43.21227081 </i>
   </energy>
  </scstep>
  <scstep>
   <time name="dav">    0.45    0.45</time>
   <time name="total">    0.48    0.48</time>
   <energy>
    <i name="e_fr_energy">    -43.21205467 </i>
    <i name="e_wo_entrp">    -43.21205466 </i>
    <i name="e_0_energy">    -43.21205467 </i>
   </energy>
  </scstep>
  <scstep>
   <time name="dav">    0.50    0.56</time>
   <time name="total">    0.51    0.57</time>
   <energy>
    <i name="alphaZ">     12.63715229 </i>
    <i name="ewald">   -895.30637154 </i>
    <i name="hartreedc">    -62.64343481 </i>
    <i name="XCdc">    -72.94706991 </i>
    <i name="pawpsdc">   3786.11895227 </i>
    <i name="pawaedc">  -3646.08985946 </i>
    <i name="eentropy">     -0.00000000 </i>
    <i name="bandstr">     10.53242522 </i>
    <i name="atom">    824.48621262 </i>
    <i name="e_fr_energy">    -43.21199333 </i>
    <i name="e_wo_entrp">    -43.21199333 </i>
    <i name="e_0_energy">    -43.21199333 </i>
   </energy>
  </scstep>
  <structure>
   <crystal>
    <varray name="basis" >
     <v>       5.54491747       0.00000000       0.00000000 </v>
     <v>       0.00000000       5.54491747       0.00000000 </v>
     <v>       0.00000000       0.00000000       5.54491747 </v>
    </varray>
    <i name="volume">    170.48464100 </i>
    <varray name="rec_basis" >
     <v>       0.18034534      -0.00000000      -0.00000000 </v>
     <v>      -0.00000000       0.18034534       0.00000000 </v>
     <v>      -0.00000000       0.00000000       0.18034534 </v>
    </varray>
   </crystal>
   <varray name="positions" >
    <v>       0.00000000       0.00000000      -0.00000000 </v>
    <v>      -0.00000000       0.50000000       0.50000000 </v>
    <v>       0.50000000       0.00000000       0.50000000 </v>
    <v>       0.50000000       0.50000000      -0.00000000 </v>
    <v>       0.25000000       0.25000000       0.25000000 </v>
    <v>       0.75000000       0.75000000       0.25000000 </v>
    <v>       0.75000000       0.25000000       0.75000000 </v>
    <v>       0.25000000       0.75000000       0.75000000 </v>
   </varray>
  </structure>
  <varray name="forces" >
   <v>       0.00000000      -0.00000000       0.00000000 </v>
   <v>      -0.00000000       0.00000000       0.00000000 </v>
   <v>      -0.00000000      -0.00000000       0.00000000 </v>
   <v>      -0.00000000      -0.00000000       0.00000000 </v>
   <v>       0.00000000       0.00000000      -0.00000000 </v>
   <v>       0.00000000       0.00000000      -0.00000000 </v>
   <v>      -0.00000000       0.00000000      -0.00000000 </v>
   <v>       0.00000000       0.00000000      -0.00000000 </v>
  </varray>
  <varray name="stress" >
   <v>     -35.41590655      -0.00000000       0.00000000 </v>
   <v>      -0.00000000     -35.41590655      -0.00000000 </v>
   <v>       0.00000000       0.00000000     -35.41590655 </v>
  </varray>
  <energy>
   <i name="e_fr_energy">    -43.21199333 </i>
   <i name="e_wo_entrp">    -43.21199333 </i>
   <i name="e_0_energy">     -0.00000000 </i>
  </energy>
  <time name="totalsc">    3.48    3.59</time>
 </calculation>
 <calculation>
  <scstep>
   <time name="dav">    0.44    0.44</time>
   <time name="total">    0.45    0.45</time>
   <energy>
    <i name="alphaZ">     13.19647088 </i>
    <i name="ewald">   -908.32486587 </i>
    <i name="hartreedc">    -63.56917383 </i>
    <i name="XCdc">    -72.11077273 </i>
    <i name="pawpsdc">   3811.49919600 </i>
    <i name="pawaedc">  -3671.47434279 </i>
    <i name="eentropy">     -0.00000029 </i>
    <i name="bandstr">     22.96258101 </i>
    <i name="atom">    824.48621262 </i>
    <i name="e_fr_energy">    -43.33469502 </i>
    <i name="e_wo_entrp">    -43.33469473 </i>
    <i name="e_0_energy">    -43.33469487 </i>
   </energy>
  </scstep>
  <scstep>
   <time name="dav">    0.47    0.53</time>
   <time name="total">    0.48    0.53</time>
   <energy>
    <i name="e_fr_energy">    -43.33829858 </i>
    <i name="e_wo_entrp">    -43.33829828 </i>
    <i name="e_0_energy">    -43.33829843 </i>
   </energy>
  </scstep>
  <scstep>
   <time name="dav">    0.44    0.44</time>
   <time name="total">    0.46    0.47</time>
   <energy>
    <i name="e_fr_energy">    -43.33831806 </i>
    <i name="e_wo_entrp">    -43.33831777 </i>
    <i name="e_0_energy">    -43.33831791 </i>
   </energy>
  </scstep>
  <scstep>
   <time name="dav">    0.40    0.41</time>
   <time name="total">    0.43    0.43</time>
   <energy>
    <i name="e_fr_energy">    -43.30955440 </i>
    <i name="e_wo_entrp">    -43.30955428 </i>
    <i name="e_0_energy">    -43.30955434 </i>
   </energy>
  </scstep>
  <scstep>
   <time name="dav">    0.44    0.44</time>
   <time name="total">    0.46    0.48</time>
   <energy>
    <i name="e_fr_energy">    -43.29564892 </i>
    <i name="e_wo_entrp">    -43.29564888 </i>
    <i name="e_0_energy">    -43.29564890 </i>
   </energy>
  </scstep>
  <scstep>
   <time name="dav">    0.45    0.46</time>
   <time name="total">    0.48    0.48</time>
   <energy>
    <i name="e_fr_energy">    -43.29563500 </i>
    <i name="e_wo_entrp">    -43.29563495 </i>
    <i name="e_0_energy">    -43.29563497 </i>
   </energy>
  </scstep>
  <scstep>
   <time name="dav">    0.40    0.41</time>
   <time name="total">    0.40    0.42</time>
   <energy>
    <i name="alphaZ">     13.19647088 </i>
    <i name="ewald">   -908.32486587 </i>
    <i name="hartreedc">    -60.55363415 </i>
    <i name="XCdc">    -72.16412126 </i>
    <i name="pawpsdc">   4097.42233564 </i>
    <i name="pawaedc">  -3957.53728990 </i>
    <i name="eentropy">     -0.00000004 </i>
    <i name="bandstr">     20.17932175 </i>
    <i name="atom">    824.48621262 </i>
    <i name="e_fr_energy">    -43.29557034 </i>
    <i name="e_wo_entrp">    -43.29557031 </i>
    <i name="e_0_energy">    -43.29557032 </i>
   </energy>
  </scstep>
  <structure>
   <crystal>
    <varray name="basis" >
     <v>       5.46544538       0.00000000       0.00000000 </v>
     <v>       0.00000000       5.46544538       0.00000000 </v>
     <v>       0.00000000       0.00000000       5.46544538 </v>
    </varray>
    <i name="volume">    163.25882814 </i>
    <varray name="rec_basis" >
     <v>       0.18296771      -0.00000000      -0.00000000 </v>
     <v>      -0.00000000       0.18296771       0.00000000 </v>
     <v>      -0.00000000       0.00000000       0.18296771 </v>
    </varray>
   </crystal>
   <varray name="positions" >
    <v>       0.00000000       0.00000000      -0.00000000 </v>
    <v>      -0.00000000       0.50000000       0.50000000 </v>
    <v>       0.50000000       0.00000000       0.50000000 </v>
    <v>       0.50000000       0.50000000      -0.00000000 </v>
    <v>       0.25000000       0.25000000       0.25000000 </v>
    <v>       0.75000000       0.75000000       0.25000000 </v>
    <v>       0.75000000       0.25000000       0.75000000 </v>
    <v>       0.25000000       0.75000000       0.75000000 </v>
   </varray>
  </structure>
  <varray name="forces" >
   <v>      -0.00000000       0.00000000       0.00000000 </v>
   <v>      -0.00000000      -0.00000000      -0.00000000 </v>
   <v>      -0.00000000      -0.00000000      -0.00000000 </v>
   <v>      -0.00000000       0.00000000       0.00000000 </v>
   <v>       0.00000000      -0.00000000      -0.00000000 </v>
   <v>       0.00000000      -0.00000000       0.00000000 </v>
   <v>       0.00000000       0.00000000       0.00000000 </v>
   <v>       0.00000000       0.00000000       0.00000000 </v>
  </varray>
  <varray name="stress" >
   <v>      -0.20566126       0.00000000       0.00000000 </v>
   <v>       0.00000000      -0.20566126       0.00000000 </v>
   <v>      -0.00000000      -0.00000000      -0.20566126 </v>
  </varray>
  <energy>
   <i name="e_fr_energy">    -43.29557034 </i>
   <i name="e_wo_entrp">    -43.29557032 </i>
   <i name="e_0_energy">     -0.00000004 </i>
  </energy>
  <time name="totalsc">    3.38    3.54</time>
  <eigenvalues>
   <array>
    <dimension dim="1">band</dimension>
    <dimension dim="2">kpoint</dimension>
    <dimension dim="3">spin</dimension>
    <field>eigene</field>
    <field>occ</field>
    <set>
     <set comment="spin 1">
      <set comment="kpoint 1">
       <r>   -6.1933    1.0000 </r>
       <r>   -2.1177    1.0000 </r>
       <r>   -2.1177    1.0000 </r>
       <r>   -2.1177    1.0000 </r>
       <r>   -2.1177    1.0000 </r>
       <r>   -2.1177    1.0000 </r>
       <r>   -2.1177    1.0000 </r>
       <r>    2.8372    1.0000 </r>
       <r>    2.8372    1.0000 </r>
       <r>    2.8372    1.0000 </r>
       <r>    2.8372    1.0000 </r>
       <r>    2.8372    1.0000 </r>
       <r>    2.8372    1.0000 </r>
       <r>    5.6474    1.0000 </r>
       <r>    5.6474    1.0000 </r>
       <r>    5.6474    1.0000 </r>
       <r>    6.4025    0.0000 </r>
       <r>    6.4025    0.0000 </r>
       <r>    6.4025    0.0000 </r>
       <r>    6.4025    0.0000 </r>
       <r>    6.4025    0.0000 </r>
       <r>    6.4025    0.0000 </r>
       <r>    8.2056    0.0000 </r>
       <r>    8.2056    0.0000 </r>
       <r>    8.2056    0.0000 </r>
      </set>
      <set comment="kpoint 2">
       <r>   -6.1577    1.0000 </r>
       <r>   -2.7871    1.0000 </r>
       <r>   -2.1063    1.0000 </r>
       <r>   -2.1063    1.0000 </r>
       <r>   -2.1063    1.0000 </r>
       <r>   -2.1063    1.0000 </r>
       <r>   -1.4050    1.0000 </r>
       <r>    2.7366    1.0000 </r>
       <r>    2.7366    1.0000 </r>
       <r>    2.7366    1.0000 </r>
       <r>    2.7366    1.0000 </r>
       <r>    2.8695    1.0000 </r>
       <r>    2.8695    1.0000 </r>
       <r>    5.4051    1.0000 </r>
       <r>    5.5034    1.0000 </r>
       <r>    5.5034    1.0000 </r>
       <r>    6.2869    0.0000 </r>
       <r>    6.5936    0.0000 </r>
       <r>    6.5936    0.0000 </r>
       <r>    6.5936    0.0000 </r>
       <r>    6.5936    0.0000 </r>
       <r>    6.6160    0.0000 </r>
       <r>    8.1193    0.0000 </r>
       <r>    8.3937    0.0000 </r>
       <r>    8.3937    0.0000 </r>
      </set>
      <set comment="kpoint 3">
       <r>   -6.0511    1.0000 </r>
       <r>   -3.4078    1.0000 </r>
       <r>   -2.0749    1.0000 </r>
       <r>   -2.0749    1.0000 </r>
       <r>   -2.0749    1.0000 </r>
       <r>   -2.0749    1.0000 </r>
       <r>   -0.6577    1.0000 </r>
       <r>    2.4963    1.0000 </r>
       <r>    2.4963    1.0000 </r>
       <r>    2.4963    1.0000 </r>
       <r>    2.4963    1.0000 </r>
       <r>    2.9658    1.0000 </r>
       <r>    2.9658    1.0000 </r>
       <r>    4.8260    1.0000 </r>
       <r>    5.1605    1.0000 </r>
       <r>    5.1605    1.0000 </r>
       <r>    6.2622    0.0000 </r>
       <r>    6.9283    0.0000 </r>
       <r>    7.1074    0.0000 </r>
       <r>    7.1074    0.0000 </r>
       <r>    7.1074    0.0000 </r>
       <r>    7.1074    0.0000 </r>
       <r>    7.8902    0.0000 </r>
       <r>    8.8666    0.0000 </r>
       <r>    8.8666    0.0000 </r>
      </set>
      <set comment="kpoint 4">
       <r>   -5.8740    1.0000 </r>
       <r>   -3.9744    1.0000 </r>
       <r>   -2.0321    1.0000 </r>
       <r>   -2.0321    1.0000 </r>
       <r>   -2.0321    1.0000 </r>
       <r>   -2.0321    1.0000 </r>
       <r>    0.1171    1.0000 </r>
       <r>    2.2260    1.0000 </r>
       <r>    2.2260    1.0000 </r>
       <r>    2.2260    1.0000 </r>
       <r>    2.2260    1.0000 </r>
       <r>    3.1260    1.0000 </r>
       <r>    3.1260    1.0000 </r>
       <r>    4.1040    1.0000 </r>
       <r>    4.7505    1.0000 </r>
       <r>    4.7505    1.0000 </r>
       <r>    6.3232    0.0000 </r>
       <r>    7.3446    0.0000 </r>
       <r>    7.5820    0.0000 </r>
       <r>    7.8392    0.0000 </r>
       <r>    7.8392    0.0000 </r>
       <r>    7.8392    0.0000 </r>
       <r>    7.8392    0.0000 </r>
       <r>    9.4949    0.0000 </r>
       <r>    9.4949    0.0000 </r>
      </set>
      <set comment="kpoint 5">
       <r>   -5.6272    1.0000 </r>
       <r>   -4.4829    1.0000 </r>
       <r>   -1.9911    1.0000 </r>
       <r>   -1.9911    1.0000 </r>
       <r>   -1.9911    1.0000 </r>
       <r>   -1.9911    1.0000 </r>
       <r>    0.9112    1.0000 </r>
       <r>    2.0055    1.0000 </r>
       <r>    2.0055    1.0000 </r>
       <r>    2.0055    1.0000 </r>
       <r>    2.0055    1.0000 </r>
       <r>    3.3250    1.0000 </r>
       <r>    3.3469    1.0000 </r>
       <r>    3.3469    1.0000 </r>
       <r>    4.3403    1.0000 </r>
       <r>    4.3403    1.0000 </r>
       <r>    6.4618    0.0000 </r>
       <r>    7.2517    0.0000 </r>
       <r>    7.8599    0.0000 </r>
       <r>    8.7099    0.0000 </r>
       <r>    8.7099    0.0000 </r>
       <r>    8.7099    0.0000 </r>
       <r>    8.7099    0.0000 </r>
       <r>    9.7330    0.0000 </r>
       <r>   10.2045    0.0000 </r>
      </set>
      <set comment="kpoint 6">
       <r>   -5.3119    1.0000 </r>
       <r>   -4.9299    1.0000 </r>
       <r>   -1.9654    1.0000 </r>
       <r>   -1.9654    1.0000 </r>
       <r>   -1.9654    1.0000 </r>
       <r>   -1.9654    1.0000 </r>
       <r>    1.7157    1.0000 </r>
       <r>    1.8841    1.0000 </r>
       <r>    1.8841    1.0000 </r>
       <r>    1.8841    1.0000 </r>
       <r>    1.8841    1.0000 </r>
       <r>    2.5233    1.0000 </r>
       <r>    3.6263    1.0000 </r>
       <r>    3.6263    1.0000 </r>
       <r>    3.9597    1.0000 </r>
       <r>    3.9597    1.0000 </r>
       <r>    6.6698    0.0000 </r>
       <r>    6.9393    0.0000 </r>
       <r>    8.4661    0.0000 </r>
       <r>    9.1277    0.0000 </r>
       <r>    9.6432    0.0000 </r>
       <r>    9.6432    0.0000 </r>
       <r>    9.6432    0.0000 </r>
       <r>    9.6432    0.0000 </r>
       <r>   10.9017    0.0000 </r>
      </set>
      <set comment="kpoint 7">
       <r>   -6.1222    1.0000 </r>
       <r>   -2.7687    1.0000 </r>
       <r>   -2.7687    1.0000 </r>
       <r>   -2.1522    1.0000 </r>
       <r>   -2.0404    1.0000 </r>
       <r>   -1.4040    1.0000 </r>
       <r>   -1.4040    1.0000 </r>
       <r>    2.4384    1.0000 </r>
       <r>    2.7538    1.0000 </r>
       <r>    2.7538    1.0000 </r>
       <r>    2.7883    1.0000 </r>
       <r>    2.7883    1.0000 </r>
       <r>    2.8942    1.0000 </r>
       <r>    5.0095    1.0000 </r>
       <r>    5.3583    1.0000 </r>
       <r>    5.6145    1.0000 </r>
       <r>    6.4680    0.0000 </r>
       <r>    6.4864    0.0000 </r>
       <r>    6.4864    0.0000 </r>
       <r>    6.7961    0.0000 </r>
       <r>    6.7961    0.0000 </r>
       <r>    7.0434    0.0000 </r>
       <r>    8.2791    0.0000 </r>
       <r>    8.3402    0.0000 </r>
       <r>    8.3920    0.0000 </r>
      </set>
      <set comment="kpoint 8">
       <r>   -6.0159    1.0000 </r>
       <r>   -3.3843    1.0000 </r>
       <r>   -2.7156    1.0000 </r>
       <r>   -2.1861    1.0000 </r>
       <r>   -1.9517    1.0000 </r>
       <r>   -1.4036    1.0000 </r>
       <r>   -0.6707    1.0000 </r>
       <r>    2.1091    1.0000 </r>
       <r>    2.4769    1.0000 </r>
       <r>    2.5968    1.0000 </r>
       <r>    2.8388    1.0000 </r>
       <r>    2.8506    1.0000 </r>
       <r>    2.9094    1.0000 </r>
       <r>    4.4313    1.0000 </r>
       <r>    5.0159    1.0000 </r>
       <r>    5.4122    1.0000 </r>
       <r>    6.4681    0.0000 </r>
       <r>    6.7232    0.0000 </r>
       <r>    7.0160    0.0000 </r>
       <r>    7.0975    0.0000 </r>
       <r>    7.2889    0.0000 </r>
       <r>    7.7148    0.0000 </r>
       <r>    8.0828    0.0000 </r>
       <r>    8.6468    0.0000 </r>
       <r>    8.7926    0.0000 </r>
      </set>
      <set comment="kpoint 9">
       <r>   -5.8393    1.0000 </r>
       <r>   -3.9474    1.0000 </r>
       <r>   -2.6339    1.0000 </r>
       <r>   -2.2205    1.0000 </r>
       <r>   -1.8436    1.0000 </r>
       <r>   -1.4141    1.0000 </r>
       <r>    0.0835    1.0000 </r>
       <r>    1.8302    1.0000 </r>
       <r>    2.1563    1.0000 </r>
       <r>    2.3928    1.0000 </r>
       <r>    2.6679    1.0000 </r>
       <r>    2.9900    1.0000 </r>
       <r>    3.1003    1.0000 </r>
       <r>    3.7825    1.0000 </r>
       <r>    4.6039    1.0000 </r>
       <r>    4.9970    1.0000 </r>
       <r>    6.5333    0.0000 </r>
       <r>    7.2962    0.0000 </r>
       <r>    7.5001    0.0000 </r>
       <r>    7.7613    0.0000 </r>
       <r>    7.7821    0.0000 </r>
       <r>    8.0010    0.0000 </r>
       <r>    8.5331    0.0000 </r>
       <r>    9.1442    0.0000 </r>
       <r>    9.4286    0.0000 </r>
      </set>
      <set comment="kpoint 10">
       <r>   -5.5932    1.0000 </r>
       <r>   -4.4533    1.0000 </r>
       <r>   -2.5342    1.0000 </r>
       <r>   -2.2685    1.0000 </r>
       <r>   -1.7252    1.0000 </r>
       <r>   -1.4481    1.0000 </r>
       <r>    0.8479    1.0000 </r>
       <r>    1.6522    1.0000 </r>
       <r>    1.8740    1.0000 </r>
       <r>    2.2514    1.0000 </r>
       <r>    2.4540    1.0000 </r>
       <r>    3.0884    1.0000 </r>
       <r>    3.2049    1.0000 </r>
       <r>    3.3603    1.0000 </r>
       <r>    4.1921    1.0000 </r>
       <r>    4.5284    1.0000 </r>
       <r>    6.6749    0.0000 </r>
       <r>    7.4585    0.0000 </r>
       <r>    8.0023    0.0000 </r>
       <r>    8.0814    0.0000 </r>
       <r>    8.6438    0.0000 </r>
       <r>    8.8546    0.0000 </r>
       <r>    9.4495    0.0000 </r>
       <r>    9.6026    0.0000 </r>
       <r>   10.1517    0.0000 </r>
      </set>
      <set comment="kpoint 11">
       <r>   -5.2789    1.0000 </r>
       <r>   -4.8982    1.0000 </r>
       <r>   -2.4310    1.0000 </r>
       <r>   -2.3391    1.0000 </r>
       <r>   -1.6102    1.0000 </r>
       <r>   -1.5138    1.0000 </r>
       <r>    1.6001    1.0000 </r>
       <r>    1.6110    1.0000 </r>
       <r>    1.6788    1.0000 </r>
       <r>    2.2133    1.0000 </r>
       <r>    2.2870    1.0000 </r>
       <r>    2.3612    1.0000 </r>
       <r>    3.4807    1.0000 </r>
       <r>    3.6885    1.0000 </r>
       <r>    3.8127    1.0000 </r>
       <r>    4.0816    1.0000 </r>
       <r>    6.8840    0.0000 </r>
       <r>    7.1506    0.0000 </r>
       <r>    8.5928    0.0000 </r>
       <r>    8.9920    0.0000 </r>
       <r>    9.2276    0.0000 </r>
       <r>    9.6084    0.0000 </r>
       <r>    9.6618    0.0000 </r>
       <r>   10.2752    0.0000 </r>
       <r>   10.2885    0.0000 </r>
      </set>
      <set comment="kpoint 12">
       <r>   -5.9104    1.0000 </r>
       <r>   -3.3155    1.0000 </r>
       <r>   -3.3155    1.0000 </r>
       <r>   -2.2972    1.0000 </r>
       <r>   -1.8085    1.0000 </r>
       <r>   -0.7134    1.0000 </r>
       <r>   -0.7134    1.0000 </r>
       <r>    1.7710    1.0000 </r>
       <r>    2.5343    1.0000 </r>
       <r>    2.5343    1.0000 </r>
       <r>    2.7811    1.0000 </r>
       <r>    2.7811    1.0000 </r>
       <r>    3.0625    1.0000 </r>
       <r>    3.8533    1.0000 </r>
       <r>    4.6704    1.0000 </r>
       <r>    5.5041    1.0000 </r>
       <r>    6.6625    0.0000 </r>
       <r>    7.0094    0.0000 </r>
       <r>    7.0094    0.0000 </r>
       <r>    7.5647    0.0000 </r>
       <r>    7.5647    0.0000 </r>
       <r>    8.4732    0.0000 </r>
       <r>    8.4992    0.0000 </r>
       <r>    8.5384    0.0000 </r>
       <r>    8.6642    0.0000 </r>
      </set>
      <set comment="kpoint 13">
       <r>   -5.7353    1.0000 </r>
       <r>   -3.8674    1.0000 </r>
       <r>   -3.2058    1.0000 </r>
       <r>   -2.4205    1.0000 </r>
       <r>   -1.6432    1.0000 </r>
       <r>   -0.7941    1.0000 </r>
       <r>   -0.0180    1.0000 </r>
       <r>    1.5333    1.0000 </r>
       <r>    2.1771    1.0000 </r>
       <r>    2.6615    1.0000 </r>
       <r>    2.6653    1.0000 </r>
       <r>    3.0513    1.0000 </r>
       <r>    3.0732    1.0000 </r>
       <r>    3.2446    1.0000 </r>
       <r>    4.2547    1.0000 </r>
       <r>    5.2697    1.0000 </r>
       <r>    6.9761    0.0000 </r>
       <r>    7.0812    0.0000 </r>
       <r>    7.7627    0.0000 </r>
       <r>    7.9375    0.0000 </r>
       <r>    8.2508    0.0000 </r>
       <r>    8.2884    0.0000 </r>
       <r>    8.7677    0.0000 </r>
       <r>    9.2536    0.0000 </r>
       <r>    9.3404    0.0000 </r>
      </set>
      <set comment="kpoint 14">
       <r>   -5.4914    1.0000 </r>
       <r>   -4.3650    1.0000 </r>
       <r>   -3.0631    1.0000 </r>
       <r>   -2.5643    1.0000 </r>
       <r>   -1.4595    1.0000 </r>
       <r>   -0.9180    1.0000 </r>
       <r>    0.6697    1.0000 </r>
       <r>    1.4229    1.0000 </r>
       <r>    1.8489    1.0000 </r>
       <r>    2.6119    1.0000 </r>
       <r>    2.6237    1.0000 </r>
       <r>    2.8672    1.0000 </r>
       <r>    2.9444    1.0000 </r>
       <r>    3.4066    1.0000 </r>
       <r>    3.8413    1.0000 </r>
       <r>    4.8311    1.0000 </r>
       <r>    7.2251    0.0000 </r>
       <r>    7.6017    0.0000 </r>
       <r>    7.9853    0.0000 </r>
       <r>    8.4075    0.0000 </r>
       <r>    8.6495    0.0000 </r>
       <r>    9.0781    0.0000 </r>
       <r>    9.2101    0.0000 </r>
       <r>   10.0031    0.0000 </r>
       <r>   10.2717    0.0000 </r>
      </set>
      <set comment="kpoint 15">
       <r>   -5.1804    1.0000 </r>
       <r>   -4.8039    1.0000 </r>
       <r>   -2.8987    1.0000 </r>
       <r>   -2.7273    1.0000 </r>
       <r>   -1.2666    1.0000 </r>
       <r>   -1.0803    1.0000 </r>
       <r>    1.3403    1.0000 </r>
       <r>    1.4468    1.0000 </r>
       <r>    1.5955    1.0000 </r>
       <r>    1.9901    1.0000 </r>
       <r>    2.6552    1.0000 </r>
       <r>    2.7799    1.0000 </r>
       <r>    3.1349    1.0000 </r>
       <r>    3.4623    1.0000 </r>
       <r>    3.8392    1.0000 </r>
       <r>    4.3275    1.0000 </r>
       <r>    7.4322    0.0000 </r>
       <r>    7.6900    0.0000 </r>
       <r>    8.4301    0.0000 </r>
       <r>    8.9588    0.0000 </r>
       <r>    9.3434    0.0000 </r>
       <r>    9.4564    0.0000 </r>
       <r>    9.6236    0.0000 </r>
       <r>   10.1058    0.0000 </r>
       <r>   10.1704    0.0000 </r>
      </set>
      <set comment="kpoint 16">
       <r>   -5.5626    1.0000 </r>
       <r>   -3.7374    1.0000 </r>
       <r>   -3.7374    1.0000 </r>
       <r>   -2.6397    1.0000 </r>
       <r>   -1.4235    1.0000 </r>
       <r>   -0.1851    1.0000 </r>
       <r>   -0.1851    1.0000 </r>
       <r>    1.3626    1.0000 </r>
       <r>    2.2829    1.0000 </r>
       <r>    2.2829    1.0000 </r>
       <r>    2.6773    1.0000 </r>
       <r>    3.0319    1.0000 </r>
       <r>    3.0319    1.0000 </r>
       <r>    3.3337    1.0000 </r>
       <r>    3.8365    1.0000 </r>
       <r>    5.2906    1.0000 </r>
       <r>    6.9746    0.0000 </r>
       <r>    7.8375    0.0000 </r>
       <r>    7.8375    0.0000 </r>
       <r>    8.5941    0.0000 </r>
       <r>    8.5941    0.0000 </r>
       <r>    8.6390    0.0000 </r>
       <r>    8.8655    0.0000 </r>
       <r>    9.1137    0.0000 </r>
       <r>   10.2323    0.0000 </r>
      </set>
      <set comment="kpoint 17">
       <r>   -5.3228    1.0000 </r>
       <r>   -4.2204    1.0000 </r>
       <r>   -3.5631    1.0000 </r>
       <r>   -2.8765    1.0000 </r>
       <r>   -1.1827    1.0000 </r>
       <r>   -0.4061    1.0000 </r>
       <r>    0.4059    1.0000 </r>
       <r>    1.3269    1.0000 </r>
       <r>    1.9214    1.0000 </r>
       <r>    2.1085    1.0000 </r>
       <r>    2.4670    1.0000 </r>
       <r>    3.0754    1.0000 </r>
       <r>    3.3927    1.0000 </r>
       <r>    3.4217    1.0000 </r>
       <r>    3.4929    1.0000 </r>
       <r>    5.0162    1.0000 </r>
       <r>    7.3402    0.0000 </r>
       <r>    7.9789    0.0000 </r>
       <r>    8.6892    0.0000 </r>
       <r>    8.7228    0.0000 </r>
       <r>    8.8063    0.0000 </r>
       <r>    9.0294    0.0000 </r>
       <r>    9.3770    0.0000 </r>
       <r>    9.7930    0.0000 </r>
       <r>    9.9137    0.0000 </r>
      </set>
      <set comment="kpoint 18">
       <r>   -5.0173    1.0000 </r>
       <r>   -4.6486    1.0000 </r>
       <r>   -3.3531    1.0000 </r>
       <r>   -3.1192    1.0000 </r>
       <r>   -0.9245    1.0000 </r>
       <r>   -0.6598    1.0000 </r>
       <r>    0.9798    1.0000 </r>
       <r>    1.4196    1.0000 </r>
       <r>    1.5444    1.0000 </r>
       <r>    1.6247    1.0000 </r>
       <r>    2.7235    1.0000 </r>
       <r>    3.0450    1.0000 </r>
       <r>    3.1793    1.0000 </r>
       <r>    3.3084    1.0000 </r>
       <r>    4.0154    1.0000 </r>
       <r>    4.5502    1.0000 </r>
       <r>    8.0052    0.0000 </r>
       <r>    8.1772    0.0000 </r>
       <r>    8.4207    0.0000 </r>
       <r>    8.8607    0.0000 </r>
       <r>    9.1799    0.0000 </r>
       <r>    9.4949    0.0000 </r>
       <r>    9.6946    0.0000 </r>
       <r>    9.7853    0.0000 </r>
       <r>   10.2140    0.0000 </r>
      </set>
      <set comment="kpoint 19">
       <r>   -5.0888    1.0000 </r>
       <r>   -4.0233    1.0000 </r>
       <r>   -4.0233    1.0000 </r>
       <r>   -3.1930    1.0000 </r>
       <r>   -0.8876    1.0000 </r>
       <r>    0.0916    1.0000 </r>
       <r>    0.0916    1.0000 </r>
       <r>    1.3594    1.0000 </r>
       <r>    1.5897    1.0000 </r>
       <r>    2.0828    1.0000 </r>
       <r>    2.0828    1.0000 </r>
       <r>    3.0082    1.0000 </r>
       <r>    3.6114    1.0000 </r>
       <r>    3.6114    1.0000 </r>
       <r>    3.6929    1.0000 </r>
       <r>    4.9655    1.0000 </r>
       <r>    7.3871    0.0000 </r>
       <r>    8.5936    0.0000 </r>
       <r>    8.8557    0.0000 </r>
       <r>    8.8557    0.0000 </r>
       <r>    9.3306    0.0000 </r>
       <r>    9.3306    0.0000 </r>
       <r>    9.3761    0.0000 </r>
       <r>    9.6798    0.0000 </r>
       <r>    9.8257    0.0000 </r>
      </set>
      <set comment="kpoint 20">
       <r>   -4.7917    1.0000 </r>
       <r>   -4.4352    1.0000 </r>
       <r>   -3.7799    1.0000 </r>
       <r>   -3.4991    1.0000 </r>
       <r>   -0.5722    1.0000 </r>
       <r>   -0.2416    1.0000 </r>
       <r>    0.5839    1.0000 </r>
       <r>    1.0814    1.0000 </r>
       <r>    1.5076    1.0000 </r>
       <r>    1.7549    1.0000 </r>
       <r>    2.3237    1.0000 </r>
       <r>    2.6363    1.0000 </r>
       <r>    3.7311    1.0000 </r>
       <r>    3.7883    1.0000 </r>
       <r>    4.1649    1.0000 </r>
       <r>    4.6541    1.0000 </r>
       <r>    7.7863    0.0000 </r>
       <r>    8.4711    0.0000 </r>
       <r>    8.6440    0.0000 </r>
       <r>    8.9162    0.0000 </r>
       <r>    9.0380    0.0000 </r>
       <r>    9.2555    0.0000 </r>
       <r>    9.8161    0.0000 </r>
       <r>   10.2963    0.0000 </r>
       <r>   10.4351    0.0000 </r>
      </set>
      <set comment="kpoint 21">
       <r>   -4.5069    1.0000 </r>
       <r>   -4.1677    1.0000 </r>
       <r>   -4.1677    1.0000 </r>
       <r>   -3.8525    1.0000 </r>
       <r>   -0.2029    1.0000 </r>
       <r>    0.1844    1.0000 </r>
       <r>    0.1844    1.0000 </r>
       <r>    0.6253    1.0000 </r>
       <r>    1.6974    1.0000 </r>
       <r>    1.9744    1.0000 </r>
       <r>    1.9744    1.0000 </r>
       <r>    2.2731    1.0000 </r>
       <r>    4.1141    1.0000 </r>
       <r>    4.2249    1.0000 </r>
       <r>    4.2249    1.0000 </r>
       <r>    4.5555    1.0000 </r>
       <r>    7.8589    0.0000 </r>
       <r>    8.2587    0.0000 </r>
       <r>    8.2587    0.0000 </r>
       <r>    8.3063    0.0000 </r>
       <r>    9.9703    0.0000 </r>
       <r>    9.9703    0.0000 </r>
       <r>   10.0271    0.0000 </r>
       <r>   10.3677    0.0000 </r>
       <r>   10.8187    0.0000 </r>
      </set>
      <set comment="kpoint 22">
       <r>   -6.0868    1.0000 </r>
       <r>   -2.7533    1.0000 </r>
       <r>   -2.7533    1.0000 </r>
       <r>   -2.7533    1.0000 </r>
       <r>   -1.4029    1.0000 </r>
       <r>   -1.4029    1.0000 </r>
       <r>   -1.4029    1.0000 </r>
       <r>    2.4790    1.0000 </r>
       <r>    2.4790    1.0000 </r>
       <r>    2.4790    1.0000 </r>
       <r>    2.9260    1.0000 </r>
       <r>    2.9260    1.0000 </r>
       <r>    2.9260    1.0000 </r>
       <r>    4.6582    1.0000 </r>
       <r>    5.4823    1.0000 </r>
       <r>    5.4823    1.0000 </r>
       <r>    6.4809    0.0000 </r>
       <r>    6.4809    0.0000 </r>
       <r>    6.4809    0.0000 </r>
       <r>    7.1245    0.0000 </r>
       <r>    7.1245    0.0000 </r>
       <r>    7.1245    0.0000 </r>
       <r>    8.1976    0.0000 </r>
       <r>    8.4487    0.0000 </r>
       <r>    8.4487    0.0000 </r>
      </set>
      <set comment="kpoint 23">
       <r>   -5.9808    1.0000 </r>
       <r>   -3.3624    1.0000 </r>
       <r>   -2.7103    1.0000 </r>
       <r>   -2.7103    1.0000 </r>
       <r>   -1.4018    1.0000 </r>
       <r>   -1.4018    1.0000 </r>
       <r>   -0.6870    1.0000 </r>
       <r>    2.1575    1.0000 </r>
       <r>    2.1575    1.0000 </r>
       <r>    2.6019    1.0000 </r>
       <r>    2.8868    1.0000 </r>
       <r>    2.8868    1.0000 </r>
       <r>    3.0216    1.0000 </r>
       <r>    4.0935    1.0000 </r>
       <r>    5.1607    1.0000 </r>
       <r>    5.3528    1.0000 </r>
       <r>    6.5317    0.0000 </r>
       <r>    6.7529    0.0000 </r>
       <r>    6.7529    0.0000 </r>
       <r>    7.3542    0.0000 </r>
       <r>    7.7752    0.0000 </r>
       <r>    7.7752    0.0000 </r>
       <r>    8.1634    0.0000 </r>
       <r>    8.4676    0.0000 </r>
       <r>    8.8799    0.0000 </r>
      </set>
      <set comment="kpoint 24">
       <r>   -5.8047    1.0000 </r>
       <r>   -3.9213    1.0000 </r>
       <r>   -2.6494    1.0000 </r>
       <r>   -2.6494    1.0000 </r>
       <r>   -1.4055    1.0000 </r>
       <r>   -1.4055    1.0000 </r>
       <r>    0.0428    1.0000 </r>
       <r>    1.8824    1.0000 </r>
       <r>    1.8824    1.0000 </r>
       <r>    2.7191    1.0000 </r>
       <r>    2.7191    1.0000 </r>
       <r>    2.8074    1.0000 </r>
       <r>    3.1794    1.0000 </r>
       <r>    3.4815    1.0000 </r>
       <r>    4.7685    1.0000 </r>
       <r>    4.9440    1.0000 </r>
       <r>    6.6370    0.0000 </r>
       <r>    7.3293    0.0000 </r>
       <r>    7.3293    0.0000 </r>
       <r>    7.7110    0.0000 </r>
       <r>    7.9246    0.0000 </r>
       <r>    8.5845    0.0000 </r>
       <r>    8.5845    0.0000 </r>
       <r>    8.8933    0.0000 </r>
       <r>    9.4552    0.0000 </r>
      </set>
      <set comment="kpoint 25">
       <r>   -5.5594    1.0000 </r>
       <r>   -4.4241    1.0000 </r>
       <r>   -2.5879    1.0000 </r>
       <r>   -2.5879    1.0000 </r>
       <r>   -1.4157    1.0000 </r>
       <r>   -1.4157    1.0000 </r>
       <r>    0.7727    1.0000 </r>
       <r>    1.6945    1.0000 </r>
       <r>    1.6945    1.0000 </r>
       <r>    2.5344    1.0000 </r>
       <r>    2.5344    1.0000 </r>
       <r>    2.8432    1.0000 </r>
       <r>    3.0977    1.0000 </r>
       <r>    3.3974    1.0000 </r>
       <r>    4.3703    1.0000 </r>
       <r>    4.4307    1.0000 </r>
       <r>    6.8045    0.0000 </r>
       <r>    7.6130    0.0000 </r>
       <r>    8.1137    0.0000 </r>
       <r>    8.1137    0.0000 </r>
       <r>    8.1806    0.0000 </r>
       <r>    9.4453    0.0000 </r>
       <r>    9.4930    0.0000 </r>
       <r>    9.4930    0.0000 </r>
       <r>   10.1008    0.0000 </r>
      </set>
      <set comment="kpoint 26">
       <r>   -5.2462    1.0000 </r>
       <r>   -4.8669    1.0000 </r>
       <r>   -2.5482    1.0000 </r>
       <r>   -2.5482    1.0000 </r>
       <r>   -1.4257    1.0000 </r>
       <r>   -1.4257    1.0000 </r>
       <r>    1.4886    1.0000 </r>
       <r>    1.6031    1.0000 </r>
       <r>    1.6031    1.0000 </r>
       <r>    2.1805    1.0000 </r>
       <r>    2.4185    1.0000 </r>
       <r>    2.4185    1.0000 </r>
       <r>    3.4716    1.0000 </r>
       <r>    3.6724    1.0000 </r>
       <r>    3.9236    1.0000 </r>
       <r>    4.0002    1.0000 </r>
       <r>    7.0301    0.0000 </r>
       <r>    7.3055    0.0000 </r>
       <r>    8.7445    0.0000 </r>
       <r>    9.0214    0.0000 </r>
       <r>    9.0214    0.0000 </r>
       <r>    9.3384    0.0000 </r>
       <r>   10.0035    0.0000 </r>
       <r>   10.0035    0.0000 </r>
       <r>   10.4946    0.0000 </r>
      </set>
      <set comment="kpoint 27">
       <r>   -5.8756    1.0000 </r>
       <r>   -3.2984    1.0000 </r>
       <r>   -3.2984    1.0000 </r>
       <r>   -2.7004    1.0000 </r>
       <r>   -1.3942    1.0000 </r>
       <r>   -0.7389    1.0000 </r>
       <r>   -0.7389    1.0000 </r>
       <r>    1.8386    1.0000 </r>
       <r>    2.3029    1.0000 </r>
       <r>    2.3029    1.0000 </r>
       <r>    2.9965    1.0000 </r>
       <r>    2.9965    1.0000 </r>
       <r>    3.0931    1.0000 </r>
       <r>    3.5372    1.0000 </r>
       <r>    4.9111    1.0000 </r>
       <r>    5.4033    1.0000 </r>
       <r>    6.7018    0.0000 </r>
       <r>    6.8418    0.0000 </r>
       <r>    6.8418    0.0000 </r>
       <r>    7.9554    0.0000 </r>
       <r>    7.9554    0.0000 </r>
       <r>    8.1615    0.0000 </r>
       <r>    8.5220    0.0000 </r>
       <r>    8.6151    0.0000 </r>
       <r>    8.9017    0.0000 </r>
      </set>
      <set comment="kpoint 28">
       <r>   -5.7011    1.0000 </r>
       <r>   -3.8440    1.0000 </r>
       <r>   -3.1984    1.0000 </r>
       <r>   -2.7028    1.0000 </r>
       <r>   -1.3721    1.0000 </r>
       <r>   -0.8301    1.0000 </r>
       <r>   -0.0773    1.0000 </r>
       <r>    1.6201    1.0000 </r>
       <r>    2.0340    1.0000 </r>
       <r>    2.5421    1.0000 </r>
       <r>    2.8761    1.0000 </r>
       <r>    2.9529    1.0000 </r>
       <r>    3.1075    1.0000 </r>
       <r>    3.1827    1.0000 </r>
       <r>    4.5098    1.0000 </r>
       <r>    5.1822    1.0000 </r>
       <r>    6.9882    0.0000 </r>
       <r>    7.0166    0.0000 </r>
       <r>    7.4264    0.0000 </r>
       <r>    8.2106    0.0000 </r>
       <r>    8.2544    0.0000 </r>
       <r>    8.6732    0.0000 </r>
       <r>    8.7398    0.0000 </r>
       <r>    9.3412    0.0000 </r>
       <r>    9.3843    0.0000 </r>
      </set>
      <set comment="kpoint 29">
       <r>   -5.4581    1.0000 </r>
       <r>   -4.3376    1.0000 </r>
       <r>   -3.0732    1.0000 </r>
       <r>   -2.7391    1.0000 </r>
       <r>   -1.3200    1.0000 </r>
       <r>   -0.9554    1.0000 </r>
       <r>    0.5665    1.0000 </r>
       <r>    1.5220    1.0000 </r>
       <r>    1.8149    1.0000 </r>
       <r>    2.3676    1.0000 </r>
       <r>    2.7735    1.0000 </r>
       <r>    2.8651    1.0000 </r>
       <r>    2.9901    1.0000 </r>
       <r>    3.4516    1.0000 </r>
       <r>    4.0832    1.0000 </r>
       <r>    4.7473    1.0000 </r>
       <r>    7.1886    0.0000 </r>
       <r>    7.6391    0.0000 </r>
       <r>    8.0084    0.0000 </r>
       <r>    8.2095    0.0000 </r>
       <r>    8.6666    0.0000 </r>
       <r>    9.0921    0.0000 </r>
       <r>    9.6205    0.0000 </r>
       <r>    9.9517    0.0000 </r>
       <r>   10.3012    0.0000 </r>
      </set>
      <set comment="kpoint 30">
       <r>   -5.1483    1.0000 </r>
       <r>   -4.7738    1.0000 </r>
       <r>   -2.9400    1.0000 </r>
       <r>   -2.8211    1.0000 </r>
       <r>   -1.2259    1.0000 </r>
       <r>   -1.0967    1.0000 </r>
       <r>    1.1850    1.0000 </r>
       <r>    1.5386    1.0000 </r>
       <r>    1.6452    1.0000 </r>
       <r>    1.7817    1.0000 </r>
       <r>    2.7612    1.0000 </r>
       <r>    2.8481    1.0000 </r>
       <r>    3.2472    1.0000 </r>
       <r>    3.6590    1.0000 </r>
       <r>    3.8119    1.0000 </r>
       <r>    4.2583    1.0000 </r>
       <r>    7.4361    0.0000 </r>
       <r>    7.7180    0.0000 </r>
       <r>    8.4645    0.0000 </r>
       <r>    9.0988    0.0000 </r>
       <r>    9.1705    0.0000 </r>
       <r>    9.4458    0.0000 </r>
       <r>    9.5343    0.0000 </r>
       <r>   10.1130    0.0000 </r>
       <r>   10.1291    0.0000 </r>
      </set>
      <set comment="kpoint 31">
       <r>   -5.5293    1.0000 </r>
       <r>   -3.7195    1.0000 </r>
       <r>   -3.7195    1.0000 </r>
       <r>   -2.8068    1.0000 </r>
       <r>   -1.2960    1.0000 </r>
       <r>   -0.2664    1.0000 </r>
       <r>   -0.2664    1.0000 </r>
       <r>    1.4814    1.0000 </r>
       <r>    2.2693    1.0000 </r>
       <r>    2.2693    1.0000 </r>
       <r>    2.3968    1.0000 </r>
       <r>    3.1468    1.0000 </r>
       <r>    3.1468    1.0000 </r>
       <r>    3.3624    1.0000 </r>
       <r>    4.1089    1.0000 </r>
       <r>    5.2302    1.0000 </r>
       <r>    7.0164    0.0000 </r>
       <r>    7.5837    0.0000 </r>
       <r>    7.5837    0.0000 </r>
       <r>    8.3086    0.0000 </r>
       <r>    8.8984    0.0000 </r>
       <r>    9.0015    0.0000 </r>
       <r>    9.0015    0.0000 </r>
       <r>    9.2497    0.0000 </r>
       <r>   10.2724    0.0000 </r>
      </set>
      <set comment="kpoint 32">
       <r>   -5.2905    1.0000 </r>
       <r>   -4.1964    1.0000 </r>
       <r>   -3.5548    1.0000 </r>
       <r>   -2.9638    1.0000 </r>
       <r>   -1.1636    1.0000 </r>
       <r>   -0.5001    1.0000 </r>
       <r>    0.2743    1.0000 </r>
       <r>    1.4707    1.0000 </r>
       <r>    1.8507    1.0000 </r>
       <r>    2.0017    1.0000 </r>
       <r>    2.5656    1.0000 </r>
       <r>    3.1562    1.0000 </r>
       <r>    3.4232    1.0000 </r>
       <r>    3.5314    1.0000 </r>
       <r>    3.6886    1.0000 </r>
       <r>    4.9690    1.0000 </r>
       <r>    7.3783    0.0000 </r>
       <r>    7.7919    0.0000 </r>
       <r>    8.3631    0.0000 </r>
       <r>    8.4181    0.0000 </r>
       <r>    8.8966    0.0000 </r>
       <r>    9.3683    0.0000 </r>
       <r>    9.7267    0.0000 </r>
       <r>    9.7433    0.0000 </r>
       <r>   10.0397    0.0000 </r>
      </set>
      <set comment="kpoint 33">
       <r>   -4.9867    1.0000 </r>
       <r>   -4.6206    1.0000 </r>
       <r>   -3.3616    1.0000 </r>
       <r>   -3.1570    1.0000 </r>
       <r>   -0.9758    1.0000 </r>
       <r>   -0.7467    1.0000 </r>
       <r>    0.7987    1.0000 </r>
       <r>    1.3200    1.0000 </r>
       <r>    1.5721    1.0000 </r>
       <r>    1.7591    1.0000 </r>
       <r>    2.9064    1.0000 </r>
       <r>    3.2339    1.0000 </r>
       <r>    3.2830    1.0000 </r>
       <r>    3.3472    1.0000 </r>
       <r>    4.0066    1.0000 </r>
       <r>    4.5160    1.0000 </r>
       <r>    8.0387    0.0000 </r>
       <r>    8.0390    0.0000 </r>
       <r>    8.2916    0.0000 </r>
       <r>    8.8888    0.0000 </r>
       <r>    9.1744    0.0000 </r>
       <r>    9.2728    0.0000 </r>
       <r>    9.6559    0.0000 </r>
       <r>    9.8858    0.0000 </r>
       <r>   10.2605    0.0000 </r>
      </set>
      <set comment="kpoint 34">
       <r>   -5.0581    1.0000 </r>
       <r>   -4.0050    1.0000 </r>
       <r>   -4.0050    1.0000 </r>
       <r>   -3.2299    1.0000 </r>
       <r>   -0.9508    1.0000 </r>
       <r>   -0.0546    1.0000 </r>
       <r>   -0.0546    1.0000 </r>
       <r>    1.3427    1.0000 </r>
       <r>    1.5376    1.0000 </r>
       <r>    2.2468    1.0000 </r>
       <r>    2.2468    1.0000 </r>
       <r>    3.2803    1.0000 </r>
       <r>    3.6432    1.0000 </r>
       <r>    3.6432    1.0000 </r>
       <r>    3.7169    1.0000 </r>
       <r>    4.9416    1.0000 </r>
       <r>    7.4232    0.0000 </r>
       <r>    8.4350    0.0000 </r>
       <r>    8.5615    0.0000 </r>
       <r>    8.5615    0.0000 </r>
       <r>    9.3113    0.0000 </r>
       <r>    9.3446    0.0000 </r>
       <r>    9.3446    0.0000 </r>
       <r>    9.5444    0.0000 </r>
       <r>   10.2277    0.0000 </r>
      </set>
      <set comment="kpoint 35">
       <r>   -4.7636    1.0000 </r>
       <r>   -4.4107    1.0000 </r>
       <r>   -3.7713    1.0000 </r>
       <r>   -3.5071    1.0000 </r>
       <r>   -0.6876    1.0000 </r>
       <r>   -0.3837    1.0000 </r>
       <r>    0.3933    1.0000 </r>
       <r>    0.8566    1.0000 </r>
       <r>    1.7044    1.0000 </r>
       <r>    1.9490    1.0000 </r>
       <r>    2.5458    1.0000 </r>
       <r>    2.8933    1.0000 </r>
       <r>    3.7576    1.0000 </r>
       <r>    3.8119    1.0000 </r>
       <r>    4.1694    1.0000 </r>
       <r>    4.6420    1.0000 </r>
       <r>    7.8159    0.0000 </r>
       <r>    8.4896    0.0000 </r>
       <r>    8.5398    0.0000 </r>
       <r>    8.7230    0.0000 </r>
       <r>    8.9943    0.0000 </r>
       <r>    9.1444    0.0000 </r>
       <r>    9.4544    0.0000 </r>
       <r>   10.1765    0.0000 </r>
       <r>   10.4250    0.0000 </r>
      </set>
      <set comment="kpoint 36">
       <r>   -4.4825    1.0000 </r>
       <r>   -4.1491    1.0000 </r>
       <r>   -4.1491    1.0000 </r>
       <r>   -3.8439    1.0000 </r>
       <r>   -0.3614    1.0000 </r>
       <r>    0.0010    1.0000 </r>
       <r>    0.0010    1.0000 </r>
       <r>    0.4141    1.0000 </r>
       <r>    1.9219    1.0000 </r>
       <r>    2.2083    1.0000 </r>
       <r>    2.2083    1.0000 </r>
       <r>    2.5278    1.0000 </r>
       <r>    4.1292    1.0000 </r>
       <r>    4.2359    1.0000 </r>
       <r>    4.2359    1.0000 </r>
       <r>    4.5562    1.0000 </r>
       <r>    7.8788    0.0000 </r>
       <r>    8.2606    0.0000 </r>
       <r>    8.2606    0.0000 </r>
       <r>    8.2787    0.0000 </r>
       <r>    9.6774    0.0000 </r>
       <r>    9.6774    0.0000 </r>
       <r>    9.8661    0.0000 </r>
       <r>    9.9842    0.0000 </r>
       <r>   10.5755    0.0000 </r>
      </set>
      <set comment="kpoint 37">
       <r>   -5.7715    1.0000 </r>
       <r>   -3.2504    1.0000 </r>
       <r>   -3.2504    1.0000 </r>
       <r>   -3.2504    1.0000 </r>
       <r>   -0.8133    1.0000 </r>
       <r>   -0.8133    1.0000 </r>
       <r>   -0.8133    1.0000 </r>
       <r>    2.0430    1.0000 </r>
       <r>    2.0430    1.0000 </r>
       <r>    2.0430    1.0000 </r>
       <r>    2.9937    1.0000 </r>
       <r>    3.1849    1.0000 </r>
       <r>    3.1849    1.0000 </r>
       <r>    3.1849    1.0000 </r>
       <r>    5.1438    1.0000 </r>
       <r>    5.1438    1.0000 </r>
       <r>    6.8182    0.0000 </r>
       <r>    6.8182    0.0000 </r>
       <r>    6.8182    0.0000 </r>
       <r>    7.8798    0.0000 </r>
       <r>    8.6704    0.0000 </r>
       <r>    8.6704    0.0000 </r>
       <r>    8.6704    0.0000 </r>
       <r>    8.9190    0.0000 </r>
       <r>    8.9190    0.0000 </r>
      </set>
      <set comment="kpoint 38">
       <r>   -5.5988    1.0000 </r>
       <r>   -3.7758    1.0000 </r>
       <r>   -3.1820    1.0000 </r>
       <r>   -3.1820    1.0000 </r>
       <r>   -0.9230    1.0000 </r>
       <r>   -0.9230    1.0000 </r>
       <r>   -0.2418    1.0000 </r>
       <r>    1.8743    1.0000 </r>
       <r>    1.8743    1.0000 </r>
       <r>    2.3819    1.0000 </r>
       <r>    2.4282    1.0000 </r>
       <r>    3.2105    1.0000 </r>
       <r>    3.2105    1.0000 </r>
       <r>    3.3363    1.0000 </r>
       <r>    4.8067    1.0000 </r>
       <r>    5.0173    1.0000 </r>
       <r>    7.0061    0.0000 </r>
       <r>    7.1351    0.0000 </r>
       <r>    7.1351    0.0000 </r>
       <r>    7.9339    0.0000 </r>
       <r>    8.8009    0.0000 </r>
       <r>    8.9220    0.0000 </r>
       <r>    9.3351    0.0000 </r>
       <r>    9.5169    0.0000 </r>
       <r>    9.5169    0.0000 </r>
      </set>
      <set comment="kpoint 39">
       <r>   -5.3587    1.0000 </r>
       <r>   -4.2567    1.0000 </r>
       <r>   -3.1124    1.0000 </r>
       <r>   -3.1124    1.0000 </r>
       <r>   -1.0365    1.0000 </r>
       <r>   -1.0365    1.0000 </r>
       <r>    0.3030    1.0000 </r>
       <r>    1.7962    1.0000 </r>
       <r>    1.7962    1.0000 </r>
       <r>    1.8781    1.0000 </r>
       <r>    2.8431    1.0000 </r>
       <r>    3.1315    1.0000 </r>
       <r>    3.1315    1.0000 </r>
       <r>    3.5441    1.0000 </r>
       <r>    4.4513    1.0000 </r>
       <r>    4.5729    1.0000 </r>
       <r>    7.2538    0.0000 </r>
       <r>    7.7493    0.0000 </r>
       <r>    7.7493    0.0000 </r>
       <r>    8.0345    0.0000 </r>
       <r>    8.9015    0.0000 </r>
       <r>    9.2755    0.0000 </r>
       <r>    9.8103    0.0000 </r>
       <r>   10.3237    0.0000 </r>
       <r>   10.3237    0.0000 </r>
      </set>
      <set comment="kpoint 40">
       <r>   -5.0530    1.0000 </r>
       <r>   -4.6843    1.0000 </r>
       <r>   -3.0670    1.0000 </r>
       <r>   -3.0670    1.0000 </r>
       <r>   -1.1101    1.0000 </r>
       <r>   -1.1101    1.0000 </r>
       <r>    0.8275    1.0000 </r>
       <r>    1.3472    1.0000 </r>
       <r>    1.7746    1.0000 </r>
       <r>    1.7746    1.0000 </r>
       <r>    3.0562    1.0000 </r>
       <r>    3.0562    1.0000 </r>
       <r>    3.3962    1.0000 </r>
       <r>    3.8051    1.0000 </r>
       <r>    3.9948    1.0000 </r>
       <r>    4.1111    1.0000 </r>
       <r>    7.5422    0.0000 </r>
       <r>    7.8356    0.0000 </r>
       <r>    8.5642    0.0000 </r>
       <r>    8.5642    0.0000 </r>
       <r>    9.4332    0.0000 </r>
       <r>    9.5121    0.0000 </r>
       <r>    9.5121    0.0000 </r>
       <r>    9.6956    0.0000 </r>
       <r>   10.2924    0.0000 </r>
      </set>
      <set comment="kpoint 41">
       <r>   -5.4294    1.0000 </r>
       <r>   -3.6691    1.0000 </r>
       <r>   -3.6691    1.0000 </r>
       <r>   -3.1740    1.0000 </r>
       <r>   -1.0294    1.0000 </r>
       <r>   -0.4724    1.0000 </r>
       <r>   -0.4724    1.0000 </r>
       <r>    1.8173    1.0000 </r>
       <r>    1.8835    1.0000 </r>
       <r>    2.2720    1.0000 </r>
       <r>    2.2720    1.0000 </r>
       <r>    3.3850    1.0000 </r>
       <r>    3.3850    1.0000 </r>
       <r>    3.4465    1.0000 </r>
       <r>    4.5589    1.0000 </r>
       <r>    5.0627    1.0000 </r>
       <r>    7.1394    0.0000 </r>
       <r>    7.3265    0.0000 </r>
       <r>    7.3265    0.0000 </r>
       <r>    7.8209    0.0000 </r>
       <r>    9.0004    0.0000 </r>
       <r>    9.2901    0.0000 </r>
       <r>    9.7430    0.0000 </r>
       <r>    9.7430    0.0000 </r>
       <r>   10.3902    0.0000 </r>
      </set>
      <set comment="kpoint 42">
       <r>   -5.1942    1.0000 </r>
       <r>   -4.1262    1.0000 </r>
       <r>   -3.5359    1.0000 </r>
       <r>   -3.1997    1.0000 </r>
       <r>   -1.0905    1.0000 </r>
       <r>   -0.7178    1.0000 </r>
       <r>   -0.0337    1.0000 </r>
       <r>    1.3606    1.0000 </r>
       <r>    1.8560    1.0000 </r>
       <r>    2.1836    1.0000 </r>
       <r>    2.7647    1.0000 </r>
       <r>    3.3791    1.0000 </r>
       <r>    3.5145    1.0000 </r>
       <r>    3.6379    1.0000 </r>
       <r>    4.1804    1.0000 </r>
       <r>    4.8342    1.0000 </r>
       <r>    7.4911    0.0000 </r>
       <r>    7.5757    0.0000 </r>
       <r>    7.9255    0.0000 </r>
       <r>    7.9908    0.0000 </r>
       <r>    8.9326    0.0000 </r>
       <r>    9.5942    0.0000 </r>
       <r>    9.9067    0.0000 </r>
       <r>   10.0634    0.0000 </r>
       <r>   10.2668    0.0000 </r>
      </set>
      <set comment="kpoint 43">
       <r>   -4.8960    1.0000 </r>
       <r>   -4.5380    1.0000 </r>
       <r>   -3.3960    1.0000 </r>
       <r>   -3.2756    1.0000 </r>
       <r>   -1.0598    1.0000 </r>
       <r>   -0.9276    1.0000 </r>
       <r>    0.4082    1.0000 </r>
       <r>    0.8696    1.0000 </r>
       <r>    1.9569    1.0000 </r>
       <r>    2.0782    1.0000 </r>
       <r>    3.2826    1.0000 </r>
       <r>    3.4014    1.0000 </r>
       <r>    3.4670    1.0000 </r>
       <r>    3.7588    1.0000 </r>
       <r>    3.9819    1.0000 </r>
       <r>    4.4114    1.0000 </r>
       <r>    7.8513    0.0000 </r>
       <r>    8.0630    0.0000 </r>
       <r>    8.1345    0.0000 </r>
       <r>    8.7196    0.0000 </r>
       <r>    8.9721    0.0000 </r>
       <r>    9.0883    0.0000 </r>
       <r>    9.6162    0.0000 </r>
       <r>    9.6420    0.0000 </r>
       <r>   10.0599    0.0000 </r>
      </set>
      <set comment="kpoint 44">
       <r>   -4.9670    1.0000 </r>
       <r>   -3.9536    1.0000 </r>
       <r>   -3.9536    1.0000 </r>
       <r>   -3.3464    1.0000 </r>
       <r>   -1.0574    1.0000 </r>
       <r>   -0.3766    1.0000 </r>
       <r>   -0.3766    1.0000 </r>
       <r>    0.8660    1.0000 </r>
       <r>    1.9912    1.0000 </r>
       <r>    2.6091    1.0000 </r>
       <r>    2.6091    1.0000 </r>
       <r>    3.7380    1.0000 </r>
       <r>    3.7380    1.0000 </r>
       <r>    3.7873    1.0000 </r>
       <r>    3.8125    1.0000 </r>
       <r>    4.8675    1.0000 </r>
       <r>    7.5270    0.0000 </r>
       <r>    8.0117    0.0000 </r>
       <r>    8.1447    0.0000 </r>
       <r>    8.1447    0.0000 </r>
       <r>    9.1854    0.0000 </r>
       <r>    9.3774    0.0000 </r>
       <r>    9.3774    0.0000 </r>
       <r>    9.3841    0.0000 </r>
       <r>   10.6924    0.0000 </r>
      </set>
      <set comment="kpoint 45">
       <r>   -4.6803    1.0000 </r>
       <r>   -4.3397    1.0000 </r>
       <r>   -3.7514    1.0000 </r>
       <r>   -3.5397    1.0000 </r>
       <r>   -0.9170    1.0000 </r>
       <r>   -0.6816    1.0000 </r>
       <r>   -0.0036    1.0000 </r>
       <r>    0.4099    1.0000 </r>
       <r>    2.1817    1.0000 </r>
       <r>    2.4001    1.0000 </r>
       <r>    3.0256    1.0000 </r>
       <r>    3.4247    1.0000 </r>
       <r>    3.8374    1.0000 </r>
       <r>    3.8815    1.0000 </r>
       <r>    4.1777    1.0000 </r>
       <r>    4.6037    1.0000 </r>
       <r>    7.8952    0.0000 </r>
       <r>    8.2015    0.0000 </r>
       <r>    8.3170    0.0000 </r>
       <r>    8.5108    0.0000 </r>
       <r>    8.9569    0.0000 </r>
       <r>    8.9979    0.0000 </r>
       <r>    9.0224    0.0000 </r>
       <r>    9.7902    0.0000 </r>
       <r>    9.8124    0.0000 </r>
      </set>
      <set comment="kpoint 46">
       <r>   -4.4113    1.0000 </r>
       <r>   -4.0972    1.0000 </r>
       <r>   -4.0972    1.0000 </r>
       <r>   -3.8237    1.0000 </r>
       <r>   -0.6842    1.0000 </r>
       <r>   -0.3744    1.0000 </r>
       <r>   -0.3744    1.0000 </r>
       <r>   -0.0086    1.0000 </r>
       <r>    2.4434    1.0000 </r>
       <r>    2.7322    1.0000 </r>
       <r>    2.7322    1.0000 </r>
       <r>    3.0757    1.0000 </r>
       <r>    4.1742    1.0000 </r>
       <r>    4.2660    1.0000 </r>
       <r>    4.2660    1.0000 </r>
       <r>    4.5554    1.0000 </r>
       <r>    7.9215    0.0000 </r>
       <r>    8.1415    0.0000 </r>
       <r>    8.2268    0.0000 </r>
       <r>    8.2268    0.0000 </r>
       <r>    9.2154    0.0000 </r>
       <r>    9.2154    0.0000 </r>
       <r>    9.4656    0.0000 </r>
[...]
       <r>   -0.9951    1.0000 </r>
       <r>   -0.0846    1.0000 </r>
       <r>    3.2547    1.0000 </r>
       <r>    3.2547    1.0000 </r>
       <r>    3.2547    1.0000 </r>
       <r>    4.0495    1.0000 </r>
       <r>    4.0495    1.0000 </r>
       <r>    4.0495    1.0000 </r>
       <r>    4.5912    1.0000 </r>
       <r>    4.5912    1.0000 </r>
       <r>    7.2730    0.0000 </r>
       <r>    7.8071    0.0000 </r>
       <r>    7.8071    0.0000 </r>
       <r>    7.8071    0.0000 </r>
       <r>    9.1269    0.0000 </r>
       <r>    9.1269    0.0000 </r>
       <r>    9.2777    0.0000 </r>
       <r>    9.2777    0.0000 </r>
       <r>    9.2777    0.0000 </r>
      </set>
      <set comment="kpoint 54">
       <r>   -4.3687    1.0000 </r>
       <r>   -4.0910    1.0000 </r>
       <r>   -3.7569    1.0000 </r>
       <r>   -3.7569    1.0000 </r>
       <r>   -1.1492    1.0000 </r>
       <r>   -1.1492    1.0000 </r>
       <r>   -0.7848    1.0000 </r>
       <r>   -0.4756    1.0000 </r>
       <r>    3.3940    1.0000 </r>
       <r>    3.3940    1.0000 </r>
       <r>    3.8992    1.0000 </r>
       <r>    4.1508    1.0000 </r>
       <r>    4.1508    1.0000 </r>
       <r>    4.2240    1.0000 </r>
       <r>    4.4106    1.0000 </r>
       <r>    4.4124    1.0000 </r>
       <r>    7.4106    0.0000 </r>
       <r>    7.7277    0.0000 </r>
       <r>    7.9333    0.0000 </r>
       <r>    7.9333    0.0000 </r>
       <r>    8.9088    0.0000 </r>
       <r>    8.9088    0.0000 </r>
       <r>    8.9293    0.0000 </r>
       <r>    8.9672    0.0000 </r>
       <r>    9.2680    0.0000 </r>
      </set>
      <set comment="kpoint 55">
       <r>   -4.1620    1.0000 </r>
       <r>   -3.9479    1.0000 </r>
       <r>   -3.9479    1.0000 </r>
       <r>   -3.8280    1.0000 </r>
       <r>   -1.1783    1.0000 </r>
       <r>   -1.0489    1.0000 </r>
       <r>   -1.0489    1.0000 </r>
       <r>   -0.8154    1.0000 </r>
       <r>    3.7246    1.0000 </r>
       <r>    3.9078    1.0000 </r>
       <r>    3.9078    1.0000 </r>
       <r>    4.2267    1.0000 </r>
       <r>    4.3234    1.0000 </r>
       <r>    4.3515    1.0000 </r>
       <r>    4.3515    1.0000 </r>
       <r>    4.5220    1.0000 </r>
       <r>    7.3619    0.0000 </r>
       <r>    7.6311    0.0000 </r>
       <r>    7.6311    0.0000 </r>
       <r>    7.6982    0.0000 </r>
       <r>    8.9152    0.0000 </r>
       <r>    8.9152    0.0000 </r>
       <r>    8.9877    0.0000 </r>
       <r>    9.0753    0.0000 </r>
       <r>    9.0810    0.0000 </r>
      </set>
      <set comment="kpoint 56">
       <r>   -4.0185    1.0000 </r>
       <r>   -3.8987    1.0000 </r>
       <r>   -3.8987    1.0000 </r>
       <r>   -3.8987    1.0000 </r>
       <r>   -1.2122    1.0000 </r>
       <r>   -1.2122    1.0000 </r>
       <r>   -1.2122    1.0000 </r>
       <r>   -1.0832    1.0000 </r>
       <r>    4.2586    1.0000 </r>
       <r>    4.2586    1.0000 </r>
       <r>    4.2586    1.0000 </r>
       <r>    4.4050    1.0000 </r>
       <r>    4.4050    1.0000 </r>
       <r>    4.4050    1.0000 </r>
       <r>    4.4742    1.0000 </r>
       <r>    4.4742    1.0000 </r>
       <r>    7.1386    0.0000 </r>
       <r>    7.3192    0.0000 </r>
       <r>    7.3192    0.0000 </r>
       <r>    7.3192    0.0000 </r>
       <r>    8.9643    0.0000 </r>
       <r>    8.9643    0.0000 </r>
       <r>    8.9643    0.0000 </r>
       <r>    9.0263    0.0000 </r>
       <r>    9.0263    0.0000 </r>
      </set>
     </set>
    </set>
   </array>
  </eigenvalues>
  <separator name="orbital magnetization" >
   <v name="MAGDIPOLOUT">      0.00000000      0.00000000      0.00000000</v>
  </separator>
  <dos>
   <i name="efermi">      5.95086577 </i>
   <total>
    <array>
     <dimension dim="1">gridpoints</dimension>
     <dimension dim="2">spin</dimension>
     <field>energy</field>
     <field>total</field>
     <field>integrated</field>
     <set>
      <set comment="spin 1">
       <r>    -7.1933     0.0000     0.0000 </r>
       <r>    -7.1296     0.0000     0.0000 </r>
       <r>    -7.0660     0.0000     0.0000 </r>
       <r>    -7.0023     0.0000     0.0000 </r>
       <r>    -6.9387     0.0000     0.0000 </r>
       <r>    -6.8750     0.0000     0.0000 </r>
       <r>    -6.8114     0.0000     0.0000 </r>
       <r>    -6.7477     0.0000     0.0000 </r>
       <r>    -6.6841     0.0000     0.0000 </r>
       <r>    -6.6204     0.0000     0.0000 </r>
       <r>    -6.5568     0.0000     0.0000 </r>
       <r>    -6.4931     0.0000     0.0000 </r>
       <r>    -6.4295     0.0000     0.0000 </r>
       <r>    -6.3658     0.0005     0.0000 </r>
       <r>    -6.3022     0.0057     0.0004 </r>
       <r>    -6.2385     0.0362     0.0027 </r>
       <r>    -6.1749     0.1283     0.0109 </r>
       <r>    -6.1112     0.2814     0.0288 </r>
       <r>    -6.0476     0.4511     0.0575 </r>
       <r>    -5.9839     0.5869     0.0948 </r>
       <r>    -5.9203     0.6735     0.1377 </r>
       <r>    -5.8566     0.7884     0.1879 </r>
       <r>    -5.7930     0.8949     0.2449 </r>
       <r>    -5.7293     0.9425     0.3048 </r>
       <r>    -5.6657     0.9680     0.3665 </r>
       <r>    -5.6020     1.0597     0.4339 </r>
       <r>    -5.5384     1.2307     0.5122 </r>
       <r>    -5.4747     1.2881     0.5942 </r>
       <r>    -5.4111     1.1955     0.6703 </r>
       <r>    -5.3474     1.1917     0.7462 </r>
       <r>    -5.2838     1.4293     0.8372 </r>
       <r>    -5.2201     1.6096     0.9396 </r>
       <r>    -5.1565     1.5717     1.0396 </r>
       <r>    -5.0928     1.4822     1.1340 </r>
       <r>    -5.0292     1.5540     1.2329 </r>
       <r>    -4.9655     1.6565     1.3383 </r>
       <r>    -4.9019     1.6684     1.4445 </r>
       <r>    -4.8382     1.8031     1.5593 </r>
       <r>    -4.7746     2.0589     1.6903 </r>
       <r>    -4.7109     2.0960     1.8237 </r>
       <r>    -4.6473     1.9062     1.9451 </r>
       <r>    -4.5836     1.7820     2.0585 </r>
       <r>    -4.5200     1.8594     2.1768 </r>
       <r>    -4.4563     2.1750     2.3153 </r>
       <r>    -4.3927     2.5709     2.4789 </r>
       <r>    -4.3290     2.5991     2.6444 </r>
       <r>    -4.2654     2.3261     2.7924 </r>
       <r>    -4.2017     2.3659     2.9430 </r>
       <r>    -4.1381     2.6174     3.1096 </r>
       <r>    -4.0744     2.6666     3.2793 </r>
       <r>    -4.0108     2.7507     3.4544 </r>
       <r>    -3.9471     3.0126     3.6462 </r>
       <r>    -3.8835     3.3248     3.8578 </r>
       <r>    -3.8198     3.7882     4.0989 </r>
       <r>    -3.7562     4.0596     4.3573 </r>
       <r>    -3.6925     3.5221     4.5815 </r>
       <r>    -3.6289     2.7987     4.7596 </r>
       <r>    -3.5652     2.9919     4.9500 </r>
       <r>    -3.5016     3.3736     5.1648 </r>
       <r>    -3.4379     2.9702     5.3538 </r>
       <r>    -3.3743     2.6365     5.5216 </r>
       <r>    -3.3106     2.7911     5.6993 </r>
       <r>    -3.2470     3.0484     5.8933 </r>
       <r>    -3.1833     3.3472     6.1064 </r>
       <r>    -3.1197     3.2436     6.3128 </r>
       <r>    -3.0560     2.5837     6.4773 </r>
       <r>    -2.9924     1.8628     6.5959 </r>
       <r>    -2.9287     1.5342     6.6935 </r>
       <r>    -2.8651     1.5496     6.7921 </r>
       <r>    -2.8014     1.9070     6.9135 </r>
       <r>    -2.7378     2.5931     7.0786 </r>
       <r>    -2.6741     2.9219     7.2646 </r>
       <r>    -2.6105     2.5501     7.4269 </r>
       <r>    -2.5468     1.9535     7.5512 </r>
       <r>    -2.4832     1.3354     7.6362 </r>
       <r>    -2.4195     0.8718     7.6917 </r>
       <r>    -2.3559     0.7013     7.7363 </r>
       <r>    -2.2922     0.7057     7.7813 </r>
       <r>    -2.2286     0.7830     7.8311 </r>
       <r>    -2.1649     0.8550     7.8855 </r>
       <r>    -2.1013     0.9384     7.9452 </r>
       <r>    -2.0376     1.0468     8.0119 </r>
       <r>    -1.9740     1.0467     8.0785 </r>
       <r>    -1.9103     0.8309     8.1314 </r>
       <r>    -1.8467     0.5747     8.1680 </r>
       <r>    -1.7830     0.4614     8.1973 </r>
       <r>    -1.7194     0.4519     8.2261 </r>
       <r>    -1.6557     0.5105     8.2586 </r>
       <r>    -1.5921     0.5947     8.2964 </r>
       <r>    -1.5284     0.9196     8.3550 </r>
       <r>    -1.4648     2.0624     8.4863 </r>
       <r>    -1.4011     3.5046     8.7093 </r>
       <r>    -1.3375     3.5506     8.9353 </r>
       <r>    -1.2738     2.5983     9.1007 </r>
       <r>    -1.2102     2.4436     9.2562 </r>
       <r>    -1.1465     3.4512     9.4759 </r>
       <r>    -1.0829     4.8244     9.7830 </r>
       <r>    -1.0192     5.4664    10.1309 </r>
       <r>    -0.9556     5.2803    10.4670 </r>
       <r>    -0.8919     4.5141    10.7543 </r>
       <r>    -0.8283     3.6050    10.9838 </r>
       <r>    -0.7646     3.7617    11.2232 </r>
       <r>    -0.7010     4.3231    11.4984 </r>
       <r>    -0.6373     3.5388    11.7236 </r>
       <r>    -0.5737     2.0301    11.8528 </r>
       <r>    -0.5100     1.6162    11.9557 </r>
       <r>    -0.4464     2.3106    12.1028 </r>
       <r>    -0.3827     2.8745    12.2857 </r>
       <r>    -0.3191     2.5016    12.4449 </r>
       <r>    -0.2554     1.7499    12.5563 </r>
       <r>    -0.1918     1.3280    12.6409 </r>
       <r>    -0.1281     1.4222    12.7314 </r>
       <r>    -0.0645     2.3157    12.8788 </r>
       <r>    -0.0008     3.0769    13.0746 </r>
       <r>     0.0628     2.5362    13.2360 </r>
       <r>     0.1265     1.4344    13.3273 </r>
       <r>     0.1901     0.8114    13.3790 </r>
       <r>     0.2538     0.8038    13.4301 </r>
       <r>     0.3174     1.2574    13.5102 </r>
       <r>     0.3811     1.9444    13.6339 </r>
       <r>     0.4447     2.1003    13.7676 </r>
       <r>     0.5084     1.4369    13.8591 </r>
       <r>     0.5720     0.9557    13.9199 </r>
       <r>     0.6357     0.8347    13.9730 </r>
       <r>     0.6993     0.7490    14.0207 </r>
       <r>     0.7630     1.0401    14.0869 </r>
       <r>     0.8266     1.7713    14.1997 </r>
       <r>     0.8903     2.0265    14.3286 </r>
       <r>     0.9539     1.3681    14.4157 </r>
       <r>     1.0176     0.6682    14.4583 </r>
       <r>     1.0812     0.4352    14.4860 </r>
       <r>     1.1449     0.4801    14.5165 </r>
       <r>     1.2085     0.6362    14.5570 </r>
       <r>     1.2722     1.0481    14.6237 </r>
       <r>     1.3358     1.8792    14.7433 </r>
       <r>     1.3995     2.5335    14.9046 </r>
       <r>     1.4631     2.9092    15.0898 </r>
       <r>     1.5268     3.5960    15.3187 </r>
       <r>     1.5904     4.2427    15.5887 </r>
       <r>     1.6541     4.2838    15.8614 </r>
       <r>     1.7177     4.0786    16.1210 </r>
       <r>     1.7814     4.4610    16.4049 </r>
       <r>     1.8450     5.2032    16.7361 </r>
       <r>     1.9087     5.2199    17.0683 </r>
       <r>     1.9723     4.4578    17.3521 </r>
       <r>     2.0360     3.6931    17.5871 </r>
       <r>     2.0996     3.3234    17.7987 </r>
       <r>     2.1633     3.6537    18.0312 </r>
       <r>     2.2269     4.3483    18.3080 </r>
       <r>     2.2906     4.6170    18.6019 </r>
       <r>     2.3542     4.5811    18.8935 </r>
       <r>     2.4179     4.7281    19.1944 </r>
       <r>     2.4815     4.7621    19.4975 </r>
       <r>     2.5452     4.6319    19.7923 </r>
       <r>     2.6088     4.4855    20.0778 </r>
       <r>     2.6725     4.3303    20.3535 </r>
       <r>     2.7361     4.7174    20.6537 </r>
       <r>     2.7998     5.5751    21.0086 </r>
       <r>     2.8634     6.2291    21.4051 </r>
       <r>     2.9271     6.4223    21.8138 </r>
       <r>     2.9907     6.2156    22.2094 </r>
       <r>     3.0544     6.1015    22.5978 </r>
       <r>     3.1180     6.0424    22.9824 </r>
       <r>     3.1817     5.6981    23.3451 </r>
       <r>     3.2453     5.2710    23.6806 </r>
       <r>     3.3090     5.3199    24.0192 </r>
       <r>     3.3726     6.1055    24.4078 </r>
       <r>     3.4363     6.6522    24.8312 </r>
       <r>     3.4999     5.9513    25.2100 </r>
       <r>     3.5636     4.7811    25.5143 </r>
       <r>     3.6272     4.4826    25.7997 </r>
       <r>     3.6909     5.1666    26.1285 </r>
       <r>     3.7545     5.7604    26.4952 </r>
       <r>     3.8182     5.8071    26.8648 </r>
       <r>     3.8818     5.3509    27.2054 </r>
       <r>     3.9455     4.8402    27.5134 </r>
       <r>     4.0091     4.6329    27.8083 </r>
       <r>     4.0728     4.4275    28.0901 </r>
       <r>     4.1364     4.7025    28.3895 </r>
       <r>     4.2001     5.4853    28.7386 </r>
       <r>     4.2637     5.5309    29.0906 </r>
       <r>     4.3274     4.6364    29.3857 </r>
       <r>     4.3910     3.7954    29.6273 </r>
       <r>     4.4547     3.6046    29.8567 </r>
       <r>     4.5183     4.0364    30.1137 </r>
       <r>     4.5820     4.2782    30.3860 </r>
       <r>     4.6456     3.5190    30.6099 </r>
       <r>     4.7093     2.5100    30.7697 </r>
       <r>     4.7729     2.1112    30.9041 </r>
       <r>     4.8366     2.0767    31.0363 </r>
       <r>     4.9002     2.0141    31.1645 </r>
       <r>     4.9639     2.0711    31.2963 </r>
       <r>     5.0275     2.0225    31.4250 </r>
       <r>     5.0912     1.5766    31.5254 </r>
       <r>     5.1548     1.2640    31.6058 </r>
       <r>     5.2185     1.2154    31.6832 </r>
       <r>     5.2821     1.0682    31.7512 </r>
       <r>     5.3458     0.9439    31.8112 </r>
       <r>     5.4094     0.9357    31.8708 </r>
       <r>     5.4731     0.8273    31.9235 </r>
       <r>     5.5367     0.5783    31.9603 </r>
       <r>     5.6004     0.3362    31.9817 </r>
       <r>     5.6640     0.1818    31.9932 </r>
       <r>     5.7277     0.0810    31.9984 </r>
       <r>     5.7913     0.0219    31.9998 </r>
       <r>     5.8550     0.0030    32.0000 </r>
       <r>     5.9186     0.0002    32.0000 </r>
       <r>     5.9823     0.0000    32.0000 </r>
       <r>     6.0459     0.0002    32.0000 </r>
       <r>     6.1096     0.0030    32.0002 </r>
       <r>     6.1732     0.0217    32.0016 </r>
       <r>     6.2369     0.0780    32.0065 </r>
       <r>     6.3005     0.1576    32.0166 </r>
       <r>     6.3642     0.2702    32.0338 </r>
       <r>     6.4278     0.5862    32.0711 </r>
       <r>     6.4915     1.0625    32.1387 </r>
       <r>     6.5551     1.2688    32.2195 </r>
       <r>     6.6188     1.2417    32.2985 </r>
       <r>     6.6824     1.3632    32.3853 </r>
       <r>     6.7461     1.5941    32.4867 </r>
       <r>     6.8097     1.7099    32.5956 </r>
       <r>     6.8734     1.6212    32.6988 </r>
       <r>     6.9370     1.7259    32.8086 </r>
       <r>     7.0006     2.3977    32.9612 </r>
       <r>     7.0643     2.9004    33.1458 </r>
       <r>     7.1279     2.7998    33.3240 </r>
       <r>     7.1916     2.5022    33.4833 </r>
       <r>     7.2552     2.5192    33.6436 </r>
       <r>     7.3189     3.2291    33.8492 </r>
       <r>     7.3825     3.8824    34.0963 </r>
       <r>     7.4462     3.8097    34.3388 </r>
       <r>     7.5098     3.5561    34.5651 </r>
       <r>     7.5735     3.7706    34.8051 </r>
       <r>     7.6371     4.2666    35.0767 </r>
       <r>     7.7008     4.8112    35.3829 </r>
       <r>     7.7644     5.6262    35.7410 </r>
       <r>     7.8281     6.3378    36.1444 </r>
       <r>     7.8917     6.6223    36.5659 </r>
       <r>     7.9554     6.8925    37.0046 </r>
       <r>     8.0190     6.8430    37.4402 </r>
       <r>     8.0827     5.9226    37.8172 </r>
       <r>     8.1463     5.1729    38.1464 </r>
       <r>     8.2100     5.4614    38.4940 </r>
       <r>     8.2736     5.8136    38.8641 </r>
       <r>     8.3373     5.1308    39.1906 </r>
       <r>     8.4009     4.2171    39.4591 </r>
       <r>     8.4646     4.2540    39.7298 </r>
       <r>     8.5282     4.7006    40.0290 </r>
       <r>     8.5919     4.8894    40.3402 </r>
       <r>     8.6555     4.9271    40.6538 </r>
       <r>     8.7192     4.8188    40.9605 </r>
       <r>     8.7828     4.5151    41.2479 </r>
       <r>     8.8465     5.0481    41.5692 </r>
       <r>     8.9101     7.1151    42.0221 </r>
       <r>     8.9738     8.9539    42.5920 </r>
       <r>     9.0374     8.6661    43.1436 </r>
       <r>     9.1011     7.1546    43.5990 </r>
       <r>     9.1647     6.1390    43.9898 </r>
       <r>     9.2284     5.9524    44.3686 </r>
       <r>     9.2920     6.3427    44.7723 </r>
       <r>     9.3557     6.8567    45.2088 </r>
       <r>     9.4193     6.9963    45.6541 </r>
       <r>     9.4830     6.5411    46.0704 </r>
       <r>     9.5466     5.6703    46.4313 </r>
       <r>     9.6103     5.0726    46.7542 </r>
       <r>     9.6739     4.9324    47.0681 </r>
       <r>     9.7376     4.6320    47.3630 </r>
       <r>     9.8012     4.1120    47.6247 </r>
       <r>     9.8649     3.5919    47.8533 </r>
       <r>     9.9285     3.4730    48.0744 </r>
       <r>     9.9922     3.7713    48.3144 </r>
       <r>    10.0558     3.9606    48.5665 </r>
       <r>    10.1195     3.7558    48.8056 </r>
       <r>    10.1831     3.4473    49.0250 </r>
       <r>    10.2468     3.5490    49.2509 </r>
       <r>    10.3104     3.5937    49.4796 </r>
       <r>    10.3741     2.7762    49.6563 </r>
       <r>    10.4377     1.7511    49.7678 </r>
       <r>    10.5014     1.1262    49.8395 </r>
       <r>    10.5650     0.7896    49.8897 </r>
       <r>    10.6287     0.5793    49.9266 </r>
       <r>    10.6923     0.4014    49.9521 </r>
       <r>    10.7560     0.2729    49.9695 </r>
       <r>    10.8196     0.1940    49.9819 </r>
       <r>    10.8833     0.1465    49.9912 </r>
       <r>    10.9469     0.0915    49.9970 </r>
       <r>    11.0106     0.0373    49.9994 </r>
       <r>    11.0742     0.0086    49.9999 </r>
       <r>    11.1379     0.0010    50.0000 </r>
       <r>    11.2015     0.0001    50.0000 </r>
       <r>    11.2652     0.0000    50.0000 </r>
       <r>    11.3288     0.0000    50.0000 </r>
       <r>    11.3925     0.0000    50.0000 </r>
       <r>    11.4561     0.0000    50.0000 </r>
       <r>    11.5198     0.0000    50.0000 </r>
       <r>    11.5834     0.0000    50.0000 </r>
       <r>    11.6471     0.0000    50.0000 </r>
       <r>    11.7107     0.0000    50.0000 </r>
       <r>    11.7744     0.0000    50.0000 </r>
       <r>    11.8380     0.0000    50.0000 </r>
       <r>    11.9017     0.0000    50.0000 </r>
      </set>
     </set>
    </array>
   </total>
  </dos>
 </calculation>
 <structure name="finalpos" >
  <crystal>
   <varray name="basis" >
    <v>       5.46544538       0.00000000       0.00000000 </v>
    <v>       0.00000000       5.46544538       0.00000000 </v>
    <v>       0.00000000       0.00000000       5.46544538 </v>
   </varray>
   <i name="volume">    163.25882814 </i>
   <varray name="rec_basis" >
    <v>       0.18296771      -0.00000000      -0.00000000 </v>
    <v>      -0.00000000       0.18296771       0.00000000 </v>
    <v>      -0.00000000       0.00000000       0.18296771 </v>
   </varray>
  </crystal>
  <varray name="positions" >
   <v>       0.00000000       0.00000000      -0.00000000 </v>
   <v>      -0.00000000       0.50000000       0.50000000 </v>
   <v>       0.50000000       0.00000000       0.50000000 </v>
   <v>       0.50000000       0.50000000      -0.00000000 </v>
   <v>       0.25000000       0.25000000       0.25000000 </v>
   <v>       0.75000000       0.75000000       0.25000000 </v>
   <v>       0.75000000       0.25000000       0.75000000 </v>
   <v>       0.25000000       0.75000000       0.75000000 </v>
  </varray>
 </structure>
</modeling>
