diamond Si                              
   5.43100000000000     
     1.020973    0.000000    0.000000
     0.000000    1.020973   -0.000000
     0.000000    0.000000    1.020973
   Si
     8
Direct
  0.000000  0.000000  0.000000
  0.000000  0.500000  0.500000
  0.500000  0.000000  0.500000
  0.500000  0.500000  0.000000
  0.250000  0.250000  0.250000
  0.750000  0.750000  0.250000
  0.750000  0.250000  0.750000
  0.250000  0.750000  0.750000
 
   56   56   56
 -30.688     -26.113     -13.423      4.5990      24.229      41.815      54.647      61.443      62.393      58.825    
  52.656      45.727      38.908      32.567      26.925      22.074      18.016      14.695      12.020      9.8903    
  8.2090      6.8897      5.8614      5.0685      4.4686      4.0306      3.7324      3.5591      3.5023      3.5591    
  3.7324      4.0306      4.4686      5.0685      5.8614      6.8897      8.2090      9.8903      12.020      14.695    
  18.016      22.074      26.925      32.567      38.908      45.727      52.656      58.825      62.393      61.443    
  54.647      41.815      24.229      4.5990     -13.423     -26.113     -26.113     -21.698     -9.4558      7.9047    
  26.765      43.581      55.736      62.007      62.605      58.848      52.619      45.697      38.897      32.579    
  26.957      22.122      18.075      14.760      12.088      9.9585      8.2760      6.9549      5.9246      5.1298    
  4.5283      4.0891      3.7900      3.6161      3.5591      3.6161      3.7900      4.0891      4.5283      5.1298    
  5.9246      6.9549      8.2760      9.9585      12.088      14.760      18.075      22.122      26.957      32.579    
  38.897      45.697      52.619      58.848      62.605      62.007      55.736      43.581      26.765      7.9047    
 -9.4558     -21.698     -13.423     -9.4558      1.5211      17.016      33.709      48.369      58.635      63.452    
  63.092      58.837      52.471      45.585      38.850      32.604      27.047      22.262      18.249      14.954    
  12.291      10.164      8.4790      7.1529      6.1169      5.3166      4.7103      4.2673      3.9654      3.7900    
  3.7324      3.7900      3.9654      4.2673      4.7103      5.3166      6.1169      7.1529      8.4790      10.164    
  12.291      14.954      18.249      22.262      27.047      32.604      38.850      45.585      52.471      58.837    
  63.092      63.452      58.635      48.369      33.709      17.016      1.5211     -9.4558      4.5990      7.9047    
  17.016      29.768      43.290      54.815      62.367      65.132      63.465      58.587      52.119      45.329    
  38.727      32.616      27.176      22.482      18.532      15.276      12.632      10.511      8.8232      7.4903    
  6.4458      5.6368      5.0229      4.5737      4.2673      4.0891      4.0306      4.0891      4.2673      4.5737    
  5.0229      5.6368      6.4458      7.4903      8.8232      10.511      12.632      15.276      18.532      22.482    
  27.176      32.616      38.727      45.329      52.119      58.587      63.465      65.132      62.367      54.815    
  43.290      29.768      17.016      7.9047      24.229      26.765      33.709      43.290      53.174      61.145    
  65.679      66.240      63.259      57.868      51.448      44.853      38.474      32.577      27.318      22.764    
  18.913      15.719      13.110      11.003      9.3172      7.9783      6.9241      6.1045      5.4806      5.0229    
  4.7103      4.5283      4.4686      4.5283      4.7103      5.0229      5.4806      6.1045      6.9241      7.9783    
  9.3172      11.003      13.110      15.719      18.913      22.764      27.318      32.577      38.474      44.853    
  51.448      57.868      63.259      66.240      65.679      61.145      53.174      43.290      33.709      26.765    
  41.815      43.581      48.369      54.815      61.145      65.714      67.453      66.090      62.115      56.533    
  50.360      44.088      38.042      32.451      27.447      23.090      19.380      16.280      13.727      11.649    
  9.9734      8.6329      7.5705      6.7399      6.1045      5.6368      5.3166      5.1298      5.0685      5.1298    
  5.3166      5.6368      6.1045      6.7399      7.5705      8.6329      9.9734      11.649      13.727      16.280    
  19.380      23.090      27.447      32.451      38.042      44.088      50.360      56.533      62.115      66.090    
  67.453      65.714      61.145      54.815      48.369      43.581      54.647      55.736      58.635      62.367    
  65.679      67.453      67.025      64.346      59.919      54.556      48.801      42.992      37.397      32.206    
  27.535      23.439      19.921      16.953      14.487      12.459      10.808      9.4755      8.4101      7.5705    
  6.9241      6.4458      6.1169      5.9246      5.8614      5.9246      6.1169      6.4458      6.9241      7.5705    
  8.4101      9.4755      10.808      12.459      14.487      16.953      19.921      23.439      27.535      32.206    
  37.397      42.992      48.801      54.556      59.919      64.346      67.025      67.453      65.679      62.367    
  58.635      55.736      61.443      62.007      63.452      65.132      66.240      66.090      64.346      61.107    
  56.834      51.960      46.780      41.563      36.526      31.827      27.567      23.796      20.526      17.738    
  15.395      13.447      11.844      10.534      9.4755      8.6329      7.9783      7.4903      7.1529      6.9549    
  6.8897      6.9549      7.1529      7.4903      7.9783      8.6329      9.4755      10.534      11.844      13.447    
  15.395      17.738      20.526      23.796      27.567      31.827      36.526      41.563      46.780      51.960    
  56.834      61.107      64.346      66.090      66.240      65.132      63.452      62.007      62.393      62.605    
  63.092      63.465      63.259      62.115      59.919      56.834      53.074      48.841      44.358      39.834    
  35.443      31.314      27.535      24.156      21.192      18.637      16.463      14.634      13.107      11.844    
  10.808      9.9734      9.3172      8.8232      8.4790      8.2760      8.2090      8.2760      8.4790      8.8232    
  9.3172      9.9734      10.808      11.844      13.107      14.634      16.463      18.637      21.192      24.156    
  27.535      31.314      35.443      39.834      44.358      48.841      53.074      56.834      59.919      62.115    
  63.259      63.465      63.092      62.605      58.825      58.848      58.837      58.587      57.868      56.533    
  54.556      51.960      48.841      45.344      41.634      37.868      34.183      30.683      27.447      24.520    
  21.925      19.660      17.709      16.044      14.634      13.447      12.459      11.649      11.003      10.511    
  10.164      9.9585      9.8903      9.9585      10.164      10.511      11.003      11.649      12.459      13.447    
  14.634      16.044      17.709      19.660      21.925      24.520      27.447      30.683      34.183      37.868    
  41.634      45.344      48.841      51.960      54.556      56.533      57.868      58.587      58.837      58.848    
  52.656      52.619      52.471      52.119      51.448      50.360      48.801      46.780      44.358      41.634    
  38.723      35.742      32.793      29.964      27.318      24.901      22.735      20.823      19.155      17.709    
  16.463      15.395      14.487      13.727      13.110      12.632      12.291      12.088      12.020      12.088    
  12.291      12.632      13.110      13.727      14.487      15.395      16.463      17.709      19.155      20.823    
  22.735      24.901      27.318      29.964      32.793      35.742      38.723      41.634      44.358      46.780    
  48.801      50.360      51.448      52.119      52.471      52.619      45.727      45.697      45.585      45.329    
  44.853      44.088      42.992      41.563      39.834      37.868      35.742      33.537      31.331      29.193    
  27.176      25.318      23.639      22.144      20.823      19.660      18.637      17.738      16.953      16.280    
  15.719      15.276      14.954      14.760      14.695      14.760      14.954      15.276      15.719      16.280    
  16.953      17.738      18.637      19.660      20.823      22.144      23.639      25.318      27.176      29.193    
  31.331      33.537      35.742      37.868      39.834      41.563      42.992      44.088      44.853      45.329    
  45.585      45.697      38.908      38.897      38.850      38.727      38.474      38.042      37.397      36.526    
  35.443      34.183      32.793      31.331      29.853      28.411      27.047      25.789      24.654      23.639    
  22.735      21.925      21.192      20.526      19.921      19.380      18.913      18.532      18.249      18.075    
  18.016      18.075      18.249      18.532      18.913      19.380      19.921      20.526      21.192      21.925    
  22.735      23.639      24.654      25.789      27.047      28.411      29.853      31.331      32.793      34.183    
  35.443      36.526      37.397      38.042      38.474      38.727      38.850      38.897      32.567      32.579    
  32.604      32.616      32.577      32.451      32.206      31.827      31.314      30.683      29.964      29.193    
  28.411      27.655      26.957      26.333      25.789      25.318      24.901      24.520      24.156      23.796    
  23.439      23.090      22.764      22.482      22.262      22.122      22.074      22.122      22.262      22.482    
  22.764      23.090      23.439      23.796      24.156      24.520      24.901      25.318      25.789      26.333    
  26.957      27.655      28.411      29.193      29.964      30.683      31.314      31.827      32.206      32.451    
  32.577      32.616      32.604      32.579      26.925      26.957      27.047      27.176      27.318      27.447    
  27.535      27.567      27.535      27.447      27.318      27.176      27.047      26.957      26.925      26.957    
  27.047      27.176      27.318      27.447      27.535      27.567      27.535      27.447      27.318      27.176    
  27.047      26.957      26.925      26.957      27.047      27.176      27.318      27.447      27.535      27.567    
  27.535      27.447      27.318      27.176      27.047      26.957      26.925      26.957      27.047      27.176    
  27.318      27.447      27.535      27.567      27.535      27.447      27.318      27.176      27.047      26.957    
  22.074      22.122      22.262      22.482      22.764      23.090      23.439      23.796      24.156      24.520    
  24.901      25.318      25.789      26.333      26.957      27.655      28.411      29.193      29.964      30.683    
  31.314      31.827      32.206      32.451      32.577      32.616      32.604      32.579      32.567      32.579    
  32.604      32.616      32.577      32.451      32.206      31.827      31.314      30.683      29.964      29.193    
  28.411      27.655      26.957      26.333      25.789      25.318      24.901      24.520      24.156      23.796    
  23.439      23.090      22.764      22.482      22.262      22.122      18.016      18.075      18.249      18.532    
  18.913      19.380      19.921      20.526      21.192      21.925      22.735      23.639      24.654      25.789    
  27.047      28.411      29.853      31.331      32.793      34.183      35.443      36.526      37.397      38.042    
  38.474      38.727      38.850      38.897      38.908      38.897      38.850      38.727      38.474      38.042    
  37.397      36.526      35.443      34.183      32.793      31.331      29.853      28.411      27.047      25.789    
  24.654      23.639      22.735      21.925      21.192      20.526      19.921      19.380      18.913      18.532    
  18.249      18.075      14.695      14.760      14.954      15.276      15.719      16.280      16.953      17.738    
  18.637      19.660      20.823      22.144      23.639      25.318      27.176      29.193      31.331      33.537    
  35.742      37.868      39.834      41.563      42.992      44.088      44.853      45.329      45.585      45.697    
  45.727      45.697      45.585      45.329      44.853      44.088      42.992      41.563      39.834      37.868    
  35.742      33.537      31.331      29.193      27.176      25.318      23.639      22.144      20.823      19.660    
  18.637      17.738      16.953      16.280      15.719      15.276      14.954      14.760      12.020      12.088    
  12.291      12.632      13.110      13.727      14.487      15.395      16.463      17.709      19.155      20.823    
  22.735      24.901      27.318      29.964      32.793      35.742      38.723      41.634      44.358      46.780    
  48.801      50.360      51.448      52.119      52.471      52.619      52.656      52.619      52.471      52.119    
  51.448      50.360      48.801      46.780      44.358      41.634      38.723      35.742      32.793      29.964    
  27.318      24.901      22.735      20.823      19.155      17.709      16.463      15.395      14.487      13.727    
  13.110      12.632      12.291      12.088      9.8903      9.9585      10.164      10.511      11.003      11.649    
  12.459      13.447      14.634      16.044      17.709      19.660      21.925      24.520      27.447      30.683    
  34.183      37.868      41.634      45.344      48.841      51.960      54.556      56.533      57.868      58.587    
  58.837      58.848      58.825      58.848      58.837      58.587      57.868      56.533      54.556      51.960    
  48.841      45.344      41.634      37.868      34.183      30.683      27.447      24.520      21.925      19.660    
  17.709      16.044      14.634      13.447      12.459      11.649      11.003      10.511      10.164      9.9585    
  8.2090      8.2760      8.4790      8.8232      9.3172      9.9734      10.808      11.844      13.107      14.634    
  16.463      18.637      21.192      24.156      27.535      31.314      35.443      39.834      44.358      48.841    
  53.074      56.834      59.919      62.115      63.259      63.465      63.092      62.605      62.393      62.605    
  63.092      63.465      63.259      62.115      59.919      56.834      53.074      48.841      44.358      39.834    
  35.443      31.314      27.535      24.156      21.192      18.637      16.463      14.634      13.107      11.844    
  10.808      9.9734      9.3172      8.8232      8.4790      8.2760      6.8897      6.9549      7.1529      7.4903    
  7.9783      8.6329      9.4755      10.534      11.844      13.447      15.395      17.738      20.526      23.796    
  27.567      31.827      36.526      41.563      46.780      51.960      56.834      61.107      64.346      66.090    
  66.240      65.132      63.452      62.007      61.443      62.007      63.452      65.132      66.240      66.090    
  64.346      61.107      56.834      51.960      46.780      41.563      36.526      31.827      27.567      23.796    
  20.526      17.738      15.395      13.447      11.844      10.534      9.4755      8.6329      7.9783      7.4903    
  7.1529      6.9549      5.8614      5.9246      6.1169      6.4458      6.9241      7.5705      8.4101      9.4755    
  10.808      12.459      14.487      16.953      19.921      23.439      27.535      32.206      37.397      42.992    
  48.801      54.556      59.919      64.346      67.025      67.453      65.679      62.367      58.635      55.736    
  54.647      55.736      58.635      62.367      65.679      67.453      67.025      64.346      59.919      54.556    
  48.801      42.992      37.397      32.206      27.535      23.439      19.921      16.953      14.487      12.459    
  10.808      9.4755      8.4101      7.5705      6.9241      6.4458      6.1169      5.9246      5.0685      5.1298    
  5.3166      5.6368      6.1045      6.7399      7.5705      8.6329      9.9734      11.649      13.727      16.280    
  19.380      23.090      27.447      32.451      38.042      44.088      50.360      56.533      62.115      66.090    
  67.453      65.714      61.145      54.815      48.369      43.581      41.815      43.581      48.369      54.815    
  61.145      65.714      67.453      66.090      62.115      56.533      50.360      44.088      38.042      32.451    
  27.447      23.090      19.380      16.280      13.727      11.649      9.9734      8.6329      7.5705      6.7399    
  6.1045      5.6368      5.3166      5.1298      4.4686      4.5283      4.7103      5.0229      5.4806      6.1045    
  6.9241      7.9783      9.3172      11.003      13.110      15.719      18.913      22.764      27.318      32.577    
  38.474      44.853      51.448      57.868      63.259      66.240      65.679      61.145      53.174      43.290    
  33.709      26.765      24.229      26.765      33.709      43.290      53.174      61.145      65.679      66.240    
  63.259      57.868      51.448      44.853      38.474      32.577      27.318      22.764      18.913      15.719    
  13.110      11.003      9.3172      7.9783      6.9241      6.1045      5.4806      5.0229      4.7103      4.5283    
  4.0306      4.0891      4.2673      4.5737      5.0229      5.6368      6.4458      7.4903      8.8232      10.511    
  12.632      15.276      18.532      22.482      27.176      32.616      38.727      45.329      52.119      58.587    
  63.465      65.132      62.367      54.815      43.290      29.768      17.016      7.9047      4.5990      7.9047    
  17.016      29.768      43.290      54.815      62.367      65.132      63.465      58.587      52.119      45.329    
  38.727      32.616      27.176      22.482      18.532      15.276      12.632      10.511      8.8232      7.4903    
  6.4458      5.6368      5.0229      4.5737      4.2673      4.0891      3.7324      3.7900      3.9654      4.2673    
  4.7103      5.3166      6.1169      7.1529      8.4790      10.164      12.291      14.954      18.249      22.262    
  27.047      32.604      38.850      45.585      52.471      58.837      63.092      63.452      58.635      48.369    
  33.709      17.016      1.5211     -9.4558     -13.423     -9.4558      1.5211      17.016      33.709      48.369    
  58.635      63.452      63.092      58.837      52.471      45.585      38.850      32.604      27.047      22.262    
  18.249      14.954      12.291      10.164      8.4790      7.1529      6.1169      5.3166      4.7103      4.2673    
  3.9654      3.7900      3.5591      3.6161      3.7900      4.0891      4.5283      5.1298      5.9246      6.9549    
  8.2760      9.9585      12.088      14.760      18.075      22.122      26.957      32.579      38.897      45.697    
  52.619      58.848      62.605      62.007      55.736      43.581      26.765      7.9047     -9.4558     -21.698    
 -26.113     -21.698     -9.4558      7.9047      26.765      43.581      55.736      62.007      62.605      58.848    
  52.619      45.697      38.897      32.579      26.957      22.122      18.075      14.760      12.088      9.9585    
  8.2760      6.9549      5.9246      5.1298      4.5283      4.0891      3.7900      3.6161      3.5023      3.5591    
  3.7324      4.0306      4.4686      5.0685      5.8614      6.8897      8.2090      9.8903      12.020      14.695    
  18.016      22.074      26.925      32.567      38.908      45.727      52.656      58.825      62.393      61.443    
  54.647      41.815      24.229      4.5990     -13.423     -26.113     -30.688     -26.113     -13.423      4.5990    
  24.229      41.815      54.647      61.443      62.393      58.825      52.656      45.727      38.908      32.567    
  26.925      22.074      18.016      14.695      12.020      9.8903      8.2090      6.8897      5.8614      5.0685    
  4.4686      4.0306      3.7324      3.5591      3.5591      3.6161      3.7900      4.0891      4.5283      5.1298    
  5.9246      6.9549      8.2760      9.9585      12.088      14.760      18.075      22.122      26.957      32.579    
  38.897      45.697      52.619      58.848      62.605      62.007      55.736      43.581      26.765      7.9047    
 -9.4558     -21.698     -26.113     -21.698     -9.4558      7.9047      26.765      43.581      55.736      62.007    
  62.605      58.848      52.619      45.697      38.897      32.579      26.957      22.122      18.075      14.760    
  12.088      9.9585      8.2760      6.9549      5.9246      5.1298      4.5283      4.0891      3.7900      3.6161    
  3.7324      3.7900      3.9654      4.2673      4.7103      5.3166      6.1169      7.1529      8.4790      10.164    
  12.291      14.954      18.249      22.262      27.047      32.604      38.850      45.585      52.471      58.837    
  63.092      63.452      58.635      48.369      33.709      17.016      1.5211     -9.4558     -13.423     -9.4558    
  1.5211      17.016      33.709      48.369      58.635      63.452      63.092      58.837      52.471      45.585    
  38.850      32.604      27.047      22.262      18.249      14.954      12.291      10.164      8.4790      7.1529    
  6.1169      5.3166      4.7103      4.2673      3.9654      3.7900      4.0306      4.0891      4.2673      4.5737    
  5.0229      5.6368      6.4458      7.4903      8.8232      10.511      12.632      15.276      18.532      22.482    
  27.176      32.616      38.727      45.329      52.119      58.587      63.465      65.132      62.367      54.815    
  43.290      29.768      17.016      7.9047      4.5990      7.9047      17.016      29.768      43.290      54.815    
  62.367      65.132      63.465      58.587      52.119      45.329      38.727      32.616      27.176      22.482    
  18.532      15.276      12.632      10.511      8.8232      7.4903      6.4458      5.6368      5.0229      4.5737    
  4.2673      4.0891      4.4686      4.5283      4.7103      5.0229      5.4806      6.1045      6.9241      7.9783    
  9.3172      11.003      13.110      15.719      18.913      22.764      27.318      32.577      38.474      44.853    
  51.448      57.868      63.259      66.240      65.679      61.145      53.174      43.290      33.709      26.765    
  24.229      26.765      33.709      43.290      53.174      61.145      65.679      66.240      63.259      57.868    
  51.448      44.853      38.474      32.577      27.318      22.764      18.913      15.719      13.110      11.003    
  9.3172      7.9783      6.9241      6.1045      5.4806      5.0229      4.7103      4.5283      5.0685      5.1298    
  5.3166      5.6368      6.1045      6.7399      7.5705      8.6329      9.9734      11.649      13.727      16.280    
  19.380      23.090      27.447      32.451      38.042      44.088      50.360      56.533      62.115      66.090    
  67.453      65.714      61.145      54.815      48.369      43.581      41.815      43.581      48.369      54.815    
  61.145      65.714      67.453      66.090      62.115      56.533      50.360      44.088      38.042      32.451    
  27.447      23.090      19.380      16.280      13.727      11.649      9.9734      8.6329      7.5705      6.7399    
  6.1045      5.6368      5.3166      5.1298      5.8614      5.9246      6.1169      6.4458      6.9241      7.5705    
  8.4101      9.4755      10.808      12.459      14.487      16.953      19.921      23.439      27.535      32.206    
  37.397      42.992      48.801      54.556      59.919      64.346      67.025      67.453      65.679      62.367    
  58.635      55.736      54.647      55.736      58.635      62.367      65.679      67.453      67.025      64.346    
  59.919      54.556      48.801      42.992      37.397      32.206      27.535      23.439      19.921      16.953    
  14.487      12.459      10.808      9.4755      8.4101      7.5705      6.9241      6.4458      6.1169      5.9246    
  6.8897      6.9549      7.1529      7.4903      7.9783      8.6329      9.4755      10.534      11.844      13.447    
  15.395      17.738      20.526      23.796      27.567      31.827      36.526      41.563      46.780      51.960    
  56.834      61.107      64.346      66.090      66.240      65.132      63.452      62.007      61.443      62.007    
  63.452      65.132      66.240      66.090      64.346      61.107      56.834      51.960      46.780      41.563    
  36.526      31.827      27.567      23.796      20.526      17.738      15.395      13.447      11.844      10.534    
  9.4755      8.6329      7.9783      7.4903      7.1529      6.9549      8.2090      8.2760      8.4790      8.8232    
  9.3172      9.9734      10.808      11.844      13.107      14.634      16.463      18.637      21.192      24.156    
  27.535      31.314      35.443      39.834      44.358      48.841      53.074      56.834      59.919      62.115    
  63.259      63.465      63.092      62.605      62.393      62.605      63.092      63.465      63.259      62.115    
  59.919      56.834      53.074      48.841      44.358      39.834      35.443      31.314      27.535      24.156    
  21.192      18.637      16.463      14.634      13.107      11.844      10.808      9.9734      9.3172      8.8232    
  8.4790      8.2760      9.8903      9.9585      10.164      10.511      11.003      11.649      12.459      13.447    
  14.634      16.044      17.709      19.660      21.925      24.520      27.447      30.683      34.183      37.868    
  41.634      45.344      48.841      51.960      54.556      56.533      57.868      58.587      58.837      58.848    
  58.825      58.848      58.837      58.587      57.868      56.533      54.556      51.960      48.841      45.344    
  41.634      37.868      34.183      30.683      27.447      24.520      21.925      19.660      17.709      16.044    
  14.634      13.447      12.459      11.649      11.003      10.511      10.164      9.9585      12.020      12.088    
  12.291      12.632      13.110      13.727      14.487      15.395      16.463      17.709      19.155      20.823    
  22.735      24.901      27.318      29.964      32.793      35.742      38.723      41.634      44.358      46.780    
  48.801      50.360      51.448      52.119      52.471      52.619      52.656      52.619      52.471      52.119    
  51.448      50.360      48.801      46.780      44.358      41.634      38.723      35.742      32.793      29.964    
  27.318      24.901      22.735      20.823      19.155      17.709      16.463      15.395      14.487      13.727    
  13.110      12.632      12.291      12.088      14.695      14.760      14.954      15.276      15.719      16.280    
  16.953      17.738      18.637      19.660      20.823      22.144      23.639      25.318      27.176      29.193    
  31.331      33.537      35.742      37.868      39.834      41.563      42.992      44.088      44.853      45.329    
  45.585      45.697      45.727      45.697      45.585      45.329      44.853      44.088      42.992      41.563    
  39.834      37.868      35.742      33.537      31.331      29.193      27.176      25.318      23.639      22.144    
  20.823      19.660      18.637      17.738      16.953      16.280      15.719      15.276      14.954      14.760    
  18.016      18.075      18.249      18.532      18.913      19.380      19.921      20.526      21.192      21.925    
  22.735      23.639      24.654      25.789      27.047      28.411      29.853      31.331      32.793      34.183    
  35.443      36.526      37.397      38.042      38.474      38.727      38.850      38.897      38.908      38.897    
  38.850      38.727      38.474      38.042      37.397      36.526      35.443      34.183      32.793      31.331    
  29.853      28.411      27.047      25.789      24.654      23.639      22.735      21.925      21.192      20.526    
  19.921      19.380      18.913      18.532      18.249      18.075      22.074      22.122      22.262      22.482    
  22.764      23.090      23.439      23.796      24.156      24.520      24.901      25.318      25.789      26.333    
  26.957      27.655      28.411      29.193      29.964      30.683      31.314      31.827      32.206      32.451    
  32.577      32.616      32.604      32.579      32.567      32.579      32.604      32.616      32.577      32.451    
  32.206      31.827      31.314      30.683      29.964      29.193      28.411      27.655      26.957      26.333    
  25.789      25.318      24.901      24.520      24.156      23.796      23.439      23.090      22.764      22.482    
  22.262      22.122      26.925      26.957      27.047      27.176      27.318      27.447      27.535      27.567    
  27.535      27.447      27.318      27.176      27.047      26.957      26.925      26.957      27.047      27.176    
  27.318      27.447      27.535      27.567      27.535      27.447      27.318      27.176      27.047      26.957    
  26.925      26.957      27.047      27.176      27.318      27.447      27.535      27.567      27.535      27.447    
  27.318      27.176      27.047      26.957      26.925      26.957      27.047      27.176      27.318      27.447    
  27.535      27.567      27.535      27.447      27.318      27.176      27.047      26.957      32.567      32.579    
  32.604      32.616      32.577      32.451      32.206      31.827      31.314      30.683      29.964      29.193    
  28.411      27.655      26.957      26.333      25.789      25.318      24.901      24.520      24.156      23.796    
  23.439      23.090      22.764      22.482      22.262      22.122      22.074      22.122      22.262      22.482    