diamond Si                              
   5.43100000000000     
     1.006043    0.000000    0.000000
     0.000000    1.006043   -0.000000
     0.000000    0.000000    1.006043
   Si
     8
Direct
  0.000000  0.000000  0.000000
  0.000000  0.500000  0.500000
  0.500000  0.000000  0.500000
  0.500000  0.500000  0.000000
  0.250000  0.250000  0.250000
  0.750000  0.750000  0.250000
  0.750000  0.250000  0.750000
  0.250000  0.750000  0.750000
 
   56   56   56
 -.31056122555E+02 -.26367174716E+02 -.13370038313E+02 0.50517506551E+01 0.25050019399E+02
 0.42866479635E+02 0.55735355072E+02 0.62385258590E+02 0.63068574793E+02 0.59202346747E+02
 0.52790112830E+02 0.45699543356E+02 0.38768503492E+02 0.32362534635E+02 0.26690629006E+02
 0.21835454594E+02 0.17788992940E+02 0.14486123452E+02 0.11832192764E+02 0.97234591327E+01
 0.80607923884E+01 0.67575299604E+01 0.57426296643E+01 0.49605237486E+01 0.43691872405E+01
 0.39376909835E+01 0.36440177957E+01 0.34734455393E+01 0.34175094604E+01 0.34734455393E+01
 0.36440177957E+01 0.39376909835E+01 0.43691872405E+01 0.49605237486E+01 0.57426296643E+01
 0.67575299604E+01 0.80607923884E+01 0.97234591327E+01 0.11832192764E+02 0.14486123452E+02
 0.17788992940E+02 0.21835454594E+02 0.26690629006E+02 0.32362534635E+02 0.38768503492E+02
 0.45699543356E+02 0.52790112830E+02 0.59202346747E+02 0.63068574793E+02 0.62385258590E+02
 0.55735355072E+02 0.42866479635E+02 0.25050019399E+02 0.50517506551E+01 -.13370038313E+02
 -.26367174716E+02 -.26367174716E+02 -.21843260908E+02 -.93119991483E+01 0.84229931538E+01
 0.27623697665E+02 0.44646187800E+02 0.56819778439E+02 0.62933850649E+02 0.63262610238E+02
 0.59210370536E+02 0.52743583997E+02 0.45663437326E+02 0.38753879432E+02 0.32371874852E+02
 0.26721410898E+02 0.21882778653E+02 0.17847460581E+02 0.14550959465E+02 0.11899740517E+02
 0.97912471226E+01 0.81273678443E+01 0.68222048919E+01 0.58052270344E+01 0.50211686815E+01
 0.44281601971E+01 0.39953402025E+01 0.37007159233E+01 0.35295721615E+01 0.34734455393E+01
 0.35295721615E+01 0.37007159233E+01 0.39953402025E+01 0.44281601971E+01 0.50211686815E+01
 0.58052270344E+01 0.68222048919E+01 0.81273678443E+01 0.97912471226E+01 0.11899740517E+02
 0.14550959465E+02 0.17847460581E+02 0.21882778653E+02 0.26721410898E+02 0.32371874852E+02
 0.38753879432E+02 0.45663437326E+02 0.52743583997E+02 0.59210370536E+02 0.63262610238E+02
 0.62933850649E+02 0.56819778439E+02 0.44646187800E+02 0.27623697665E+02 0.84229931538E+01
 -.93119991483E+01 -.21843260908E+02 -.13370038313E+02 -.93119991483E+01 0.19049714723E+01
 0.17704993384E+02 0.34663567577E+02 0.49461569886E+02 0.59697362267E+02 0.64330812082E+02
 0.63695152328E+02 0.59155161376E+02 0.52568650183E+02 0.45532950370E+02 0.38695603798E+02
 0.32390434481E+02 0.26807540810E+02 0.22020809940E+02 0.18020644220E+02 0.14744621807E+02
 0.12102646655E+02 0.99957459202E+01 0.83288790584E+01 0.70184629846E+01 0.59955314262E+01
 0.52057672213E+01 0.46078114456E+01 0.41710445814E+01 0.38735731793E+01 0.37007159233E+01
 0.36440177957E+01 0.37007159233E+01 0.38735731793E+01 0.41710445814E+01 0.46078114456E+01
 0.52057672213E+01 0.59955314262E+01 0.70184629846E+01 0.83288790584E+01 0.99957459202E+01
 0.12102646655E+02 0.14744621807E+02 0.18020644220E+02 0.22020809940E+02 0.26807540810E+02
 0.32390434481E+02 0.38695603798E+02 0.45532950370E+02 0.52568650183E+02 0.59155161376E+02
 0.63695152328E+02 0.64330812082E+02 0.59697362267E+02 0.49461569886E+02 0.34663567577E+02
 0.17704993384E+02 0.19049714723E+01 -.93119991483E+01 0.50517506551E+01 0.84229931538E+01
 0.17704993384E+02 0.30664243224E+02 0.44346428362E+02 0.55917425838E+02 0.63374161650E+02
 0.65924515347E+02 0.63980598097E+02 0.58837521354E+02 0.52175613291E+02 0.45249571963E+02
 0.38555109487E+02 0.32392392504E+02 0.26931685536E+02 0.22238319213E+02 0.18302083101E+02
 0.15064569730E+02 0.12441612098E+02 0.10340257368E+02 0.86706031496E+01 0.73529736545E+01
 0.63211048182E+01 0.55223894923E+01 0.49164606589E+01 0.44732258165E+01 0.41710445814E+01
 0.39953402025E+01 0.39376909835E+01 0.39953402025E+01 0.41710445814E+01 0.44732258165E+01
 0.49164606589E+01 0.55223894923E+01 0.63211048182E+01 0.73529736545E+01 0.86706031496E+01
 0.10340257368E+02 0.12441612098E+02 0.15064569730E+02 0.18302083101E+02 0.22238319213E+02
 0.26931685536E+02 0.32392392504E+02 0.38555109487E+02 0.45249571963E+02 0.52175613291E+02
 0.58837521354E+02 0.63980598097E+02 0.65924515347E+02 0.63374161650E+02 0.55917425838E+02
 0.44346428362E+02 0.30664243224E+02 0.17704993384E+02 0.84229931538E+01 0.25050019399E+02
 0.27623697665E+02 0.34663567577E+02 0.44346428362E+02 0.54279343759E+02 0.62203333538E+02
 0.66581893360E+02 0.66904360546E+02 0.63658413018E+02 0.58035876646E+02 0.51452941370E+02
 0.44739006010E+02 0.38281776153E+02 0.32342396178E+02 0.27069024270E+02 0.22518545958E+02
 0.18681779850E+02 0.15506720428E+02 0.12917681749E+02 0.10830095373E+02 0.91612059244E+01
 0.78368534973E+01 0.67947119709E+01 0.59848055192E+01 0.53684247656E+01 0.49164606589E+01
 0.46078114456E+01 0.44281601971E+01 0.43691872405E+01 0.44281601971E+01 0.46078114456E+01
 0.49164606589E+01 0.53684247656E+01 0.59848055192E+01 0.67947119709E+01 0.78368534973E+01
 0.91612059244E+01 0.10830095373E+02 0.12917681749E+02 0.15506720428E+02 0.18681779850E+02
 0.22518545958E+02 0.27069024270E+02 0.32342396178E+02 0.38281776153E+02 0.44739006010E+02
 0.51452941370E+02 0.58035876646E+02 0.63658413018E+02 0.66904360546E+02 0.66581893360E+02
 0.62203333538E+02 0.54279343759E+02 0.44346428362E+02 0.34663567577E+02 0.27623697665E+02
 0.42866479635E+02 0.44646187800E+02 0.49461569886E+02 0.55917425838E+02 0.62203333538E+02
 0.66651235910E+02 0.68194667848E+02 0.66592533886E+02 0.62382134498E+02 0.56616277906E+02
 0.50306533971E+02 0.43935853235E+02 0.37827957265E+02 0.32204451546E+02 0.27192342066E+02
 0.22841995949E+02 0.19147642528E+02 0.16066123838E+02 0.13532528208E+02 0.11472725502E+02
 0.98128995056E+01 0.84859425025E+01 0.74347667237E+01 0.66131124520E+01 0.59848055192E+01
 0.55223894923E+01 0.52057672213E+01 0.50211686815E+01 0.49605237486E+01 0.50211686815E+01
 0.52057672213E+01 0.55223894923E+01 0.59848055192E+01 0.66131124520E+01 0.74347667237E+01
 0.84859425025E+01 0.98128995056E+01 0.11472725502E+02 0.13532528208E+02 0.16066123838E+02
 0.19147642528E+02 0.22841995949E+02 0.27192342066E+02 0.32204451546E+02 0.37827957265E+02
 0.43935853235E+02 0.50306533971E+02 0.56616277906E+02 0.62382134498E+02 0.66592533886E+02
 0.68194667848E+02 0.66651235910E+02 0.62203333538E+02 0.55917425838E+02 0.49461569886E+02
 0.44646187800E+02 0.55735355072E+02 0.56819778439E+02 0.59697362267E+02 0.63374161650E+02
 0.66581893360E+02 0.68194667848E+02 0.67564574700E+02 0.64670979980E+02 0.60058326127E+02
 0.54554386477E+02 0.48689848406E+02 0.42803331539E+02 0.37161819954E+02 0.31950254722E+02
 0.27277440812E+02 0.23189955529E+02 0.19687755339E+02 0.16738423990E+02 0.14289416405E+02
 0.12278472644E+02 0.10642077772E+02 0.93215014281E+01 0.82661766147E+01 0.74347667237E+01
 0.67947119709E+01 0.63211048182E+01 0.59955314262E+01 0.58052270344E+01 0.57426296643E+01
 0.58052270344E+01 0.59955314262E+01 0.63211048182E+01 0.67947119709E+01 0.74347667237E+01
 0.82661766147E+01 0.93215014281E+01 0.10642077772E+02 0.12278472644E+02 0.14289416405E+02
 0.16738423990E+02 0.19687755339E+02 0.23189955529E+02 0.27277440812E+02 0.31950254722E+02
 0.37161819954E+02 0.42803331539E+02 0.48689848406E+02 0.54554386477E+02 0.60058326127E+02
 0.64670979980E+02 0.67564574700E+02 0.68194667848E+02 0.66581893360E+02 0.63374161650E+02
 0.59697362267E+02 0.56819778439E+02 0.62385258590E+02 0.62933850649E+02 0.64330812082E+02
 0.65924515347E+02 0.66904360546E+02 0.66592533886E+02 0.64670979980E+02 0.61267322329E+02
 0.56862214946E+02 0.51878868346E+02 0.46615699707E+02 0.41342396672E+02 0.36274533475E+02
 0.31564947857E+02 0.27307763791E+02 0.23548156968E+02 0.20293206658E+02 0.17521979968E+02
 0.15194779350E+02 0.13261737590E+02 0.11670361320E+02 0.10371250432E+02 0.93215014281E+01
 0.84859425025E+01 0.78368534973E+01 0.73529736545E+01 0.70184629846E+01 0.68222048919E+01
 0.67575299604E+01 0.68222048919E+01 0.70184629846E+01 0.73529736545E+01 0.78368534973E+01
 0.84859425025E+01 0.93215014281E+01 0.10371250432E+02 0.11670361320E+02 0.13261737590E+02
 0.15194779350E+02 0.17521979968E+02 0.20293206658E+02 0.23548156968E+02 0.27307763791E+02
 0.31564947857E+02 0.36274533475E+02 0.41342396672E+02 0.46615699707E+02 0.51878868346E+02
 0.56862214946E+02 0.61267322329E+02 0.64670979980E+02 0.66592533886E+02 0.66904360546E+02
 0.65924515347E+02 0.64330812082E+02 0.62933850649E+02 0.63068574793E+02 0.63262610238E+02
 0.63695152328E+02 0.63980598097E+02 0.63658413018E+02 0.62382134498E+02 0.60058326127E+02
 0.56862214946E+02 0.53003905758E+02 0.48691058489E+02 0.44150014846E+02 0.39589760977E+02
 0.35181055415E+02 0.31049490351E+02 0.27277440812E+02 0.23909847486E+02 0.20960787314E+02
 0.18420027204E+02 0.16259853643E+02 0.14442233456E+02 0.12925617332E+02 0.11670361320E+02
 0.10642077772E+02 0.98128995056E+01 0.91612059244E+01 0.86706031496E+01 0.83288790584E+01
 0.81273678443E+01 0.80607923884E+01 0.81273678443E+01 0.83288790584E+01 0.86706031496E+01
 0.91612059244E+01 0.98128995056E+01 0.10642077772E+02 0.11670361320E+02 0.12925617332E+02
 0.14442233456E+02 0.16259853643E+02 0.18420027204E+02 0.20960787314E+02 0.23909847486E+02
 0.27277440812E+02 0.31049490351E+02 0.35181055415E+02 0.39589760977E+02 0.44150014846E+02
 0.48691058489E+02 0.53003905758E+02 0.56862214946E+02 0.60058326127E+02 0.62382134498E+02
 0.63658413018E+02 0.63980598097E+02 0.63695152328E+02 0.63262610238E+02 0.59202346747E+02
 0.59210370536E+02 0.59155161376E+02 0.58837521354E+02 0.58035876646E+02 0.56616277906E+02
 0.54554386477E+02 0.51878868346E+02 0.48691058489E+02 0.45140766369E+02 0.41394181925E+02
 0.37608357205E+02 0.33916074027E+02 0.30419962886E+02 0.27192342066E+02 0.24277472077E+02
 0.21694623515E+02 0.19441936676E+02 0.17501494332E+02 0.15845444808E+02 0.14442233456E+02
 0.13261737590E+02 0.12278472644E+02 0.11472725502E+02 0.10830095373E+02 0.10340257368E+02
 0.99957459202E+01 0.97912471226E+01 0.97234591327E+01 0.97912471226E+01 0.99957459202E+01
 0.10340257368E+02 0.10830095373E+02 0.11472725502E+02 0.12278472644E+02 0.13261737590E+02
 0.14442233456E+02 0.15845444808E+02 0.17501494332E+02 0.19441936676E+02 0.21694623515E+02
 0.24277472077E+02 0.27192342066E+02 0.30419962886E+02 0.33916074027E+02 0.37608357205E+02
 0.41394181925E+02 0.45140766369E+02 0.48691058489E+02 0.51878868346E+02 0.54554386477E+02
 0.56616277906E+02 0.58035876646E+02 0.58837521354E+02 0.59155161376E+02 0.59210370536E+02
 0.52790112830E+02 0.52743583997E+02 0.52568650183E+02 0.52175613291E+02 0.51452941370E+02
 0.50306533971E+02 0.48689848406E+02 0.46615699707E+02 0.44150014846E+02 0.41394181925E+02
 0.38464506637E+02 0.35475212556E+02 0.32527600860E+02 0.29704669383E+02 0.27069024270E+02
 0.24662339038E+02 0.22505901065E+02 0.20602684843E+02 0.18941311268E+02 0.17501494332E+02
 0.16259853643E+02 0.15194779350E+02 0.14289416405E+02 0.13532528208E+02 0.12917681749E+02
 0.12441612098E+02 0.12102646655E+02 0.11899740517E+02 0.11832192764E+02 0.11899740517E+02
 0.12102646655E+02 0.12441612098E+02 0.12917681749E+02 0.13532528208E+02 0.14289416405E+02
 0.15194779350E+02 0.16259853643E+02 0.17501494332E+02 0.18941311268E+02 0.20602684843E+02
 0.22505901065E+02 0.24662339038E+02 0.27069024270E+02 0.29704669383E+02 0.32527600860E+02
 0.35475212556E+02 0.38464506637E+02 0.41394181925E+02 0.44150014846E+02 0.46615699707E+02
 0.48689848406E+02 0.50306533971E+02 0.51452941370E+02 0.52175613291E+02 0.52568650183E+02
 0.52743583997E+02 0.45699543356E+02 0.45663437326E+02 0.45532950370E+02 0.45249571963E+02
 0.44739006010E+02 0.43935853235E+02 0.42803331539E+02 0.41342396672E+02 0.39589760977E+02
 0.37608357205E+02 0.35475212556E+02 0.33270622774E+02 0.31070251081E+02 0.28939856375E+02
 0.26931685536E+02 0.25082038879E+02 0.23410311538E+02 0.21920117179E+02 0.20602684843E+02
 0.19441936676E+02 0.18420027204E+02 0.17521979968E+02 0.16738423990E+02 0.16066123838E+02
 0.15506720428E+02 0.15064569730E+02 0.14744621807E+02 0.14550959465E+02 0.14486123452E+02
 0.14550959465E+02 0.14744621807E+02 0.15064569730E+02 0.15506720428E+02 0.16066123838E+02
 0.16738423990E+02 0.17521979968E+02 0.18420027204E+02 0.19441936676E+02 0.20602684843E+02
 0.21920117179E+02 0.23410311538E+02 0.25082038879E+02 0.26931685536E+02 0.28939856375E+02
 0.31070251081E+02 0.33270622774E+02 0.35475212556E+02 0.37608357205E+02 0.39589760977E+02
 0.41342396672E+02 0.42803331539E+02 0.43935853235E+02 0.44739006010E+02 0.45249571963E+02
 0.45532950370E+02 0.45663437326E+02 0.38768503492E+02 0.38753879432E+02 0.38695603798E+02
 0.38555109487E+02 0.38281776153E+02 0.37827957265E+02 0.37161819954E+02 0.36274533475E+02
 0.35181055415E+02 0.33916074027E+02 0.32527600860E+02 0.31070251081E+02 0.29599154580E+02
 0.28164617491E+02 0.26807540810E+02 0.25555981910E+02 0.24423564518E+02 0.23410311538E+02
 0.22505901065E+02 0.21694623515E+02 0.20960787314E+02 0.20293206658E+02 0.19687755339E+02
 0.19147642528E+02 0.18681779850E+02 0.18302083101E+02 0.18020644220E+02 0.17847460581E+02
 0.17788992940E+02 0.17847460581E+02 0.18020644220E+02 0.18302083101E+02 0.18681779850E+02
 0.19147642528E+02 0.19687755339E+02 0.20293206658E+02 0.20960787314E+02 0.21694623515E+02
 0.22505901065E+02 0.23410311538E+02 0.24423564518E+02 0.25555981910E+02 0.26807540810E+02
 0.28164617491E+02 0.29599154580E+02 0.31070251081E+02 0.32527600860E+02 0.33916074027E+02
 0.35181055415E+02 0.36274533475E+02 0.37161819954E+02 0.37827957265E+02 0.38281776153E+02
 0.38555109487E+02 0.38695603798E+02 0.38753879432E+02 0.32362534635E+02 0.32371874852E+02
 0.32390434481E+02 0.32392392504E+02 0.32342396178E+02 0.32204451546E+02 0.31950254722E+02
 0.31564947857E+02 0.31049490351E+02 0.30419962886E+02 0.29704669383E+02 0.28939856375E+02
 0.28164617491E+02 0.27415486158E+02 0.26721410898E+02 0.26100014062E+02 0.25555981910E+02
 0.25082038879E+02 0.24662339038E+02 0.24277472077E+02 0.23909847486E+02 0.23548156968E+02
 0.23189955529E+02 0.22841995949E+02 0.22518545958E+02 0.22238319213E+02 0.22020809940E+02
 0.21882778653E+02 0.21835454594E+02 0.21882778653E+02 0.22020809940E+02 0.22238319213E+02
 0.22518545958E+02 0.22841995949E+02 0.23189955529E+02 0.23548156968E+02 0.23909847486E+02
 0.24277472077E+02 0.24662339038E+02 0.25082038879E+02 0.25555981910E+02 0.26100014062E+02
 0.26721410898E+02 0.27415486158E+02 0.28164617491E+02 0.28939856375E+02 0.29704669383E+02
 0.30419962886E+02 0.31049490351E+02 0.31564947857E+02 0.31950254722E+02 0.32204451546E+02
 0.32342396178E+02 0.32392392504E+02 0.32390434481E+02 0.32371874852E+02 0.26690629006E+02
 0.26721410898E+02 0.26807540810E+02 0.26931685536E+02 0.27069024270E+02 0.27192342066E+02
 0.27277440812E+02 0.27307763791E+02 0.27277440812E+02 0.27192342066E+02 0.27069024270E+02
 0.26931685536E+02 0.26807540810E+02 0.26721410898E+02 0.26690629006E+02 0.26721410898E+02
 0.26807540810E+02 0.26931685536E+02 0.27069024270E+02 0.27192342066E+02 0.27277440812E+02
 0.27307763791E+02 0.27277440812E+02 0.27192342066E+02 0.27069024270E+02 0.26931685536E+02
 0.26807540810E+02 0.26721410898E+02 0.26690629006E+02 0.26721410898E+02 0.26807540810E+02
 0.26931685536E+02 0.27069024270E+02 0.27192342066E+02 0.27277440812E+02 0.27307763791E+02
 0.27277440812E+02 0.27192342066E+02 0.27069024270E+02 0.26931685536E+02 0.26807540810E+02
 0.26721410898E+02 0.26690629006E+02 0.26721410898E+02 0.26807540810E+02 0.26931685536E+02
 0.27069024270E+02 0.27192342066E+02 0.27277440812E+02 0.27307763791E+02 0.27277440812E+02
 0.27192342066E+02 0.27069024270E+02 0.26931685536E+02 0.26807540810E+02 0.26721410898E+02
 0.21835454594E+02 0.21882778653E+02 0.22020809940E+02 0.22238319213E+02 0.22518545958E+02
 0.22841995949E+02 0.23189955529E+02 0.23548156968E+02 0.23909847486E+02 0.24277472077E+02
 0.24662339038E+02 0.25082038879E+02 0.25555981910E+02 0.26100014062E+02 0.26721410898E+02
 0.27415486158E+02 0.28164617491E+02 0.28939856375E+02 0.29704669383E+02 0.30419962886E+02
 0.31049490351E+02 0.31564947857E+02 0.31950254722E+02 0.32204451546E+02 0.32342396178E+02
 0.32392392504E+02 0.32390434481E+02 0.32371874852E+02 0.32362534635E+02 0.32371874852E+02
 0.32390434481E+02 0.32392392504E+02 0.32342396178E+02 0.32204451546E+02 0.31950254722E+02
 0.31564947857E+02 0.31049490351E+02 0.30419962886E+02 0.29704669383E+02 0.28939856375E+02
 0.28164617491E+02 0.27415486158E+02 0.26721410898E+02 0.26100014062E+02 0.25555981910E+02
 0.25082038879E+02 0.24662339038E+02 0.24277472077E+02 0.23909847486E+02 0.23548156968E+02
 0.23189955529E+02 0.22841995949E+02 0.22518545958E+02 0.22238319213E+02 0.22020809940E+02
 0.21882778653E+02 0.17788992940E+02 0.17847460581E+02 0.18020644220E+02 0.18302083101E+02
 0.18681779850E+02 0.19147642528E+02 0.19687755339E+02 0.20293206658E+02 0.20960787314E+02
 0.21694623515E+02 0.22505901065E+02 0.23410311538E+02 0.24423564518E+02 0.25555981910E+02
 0.26807540810E+02 0.28164617491E+02 0.29599154580E+02 0.31070251081E+02 0.32527600860E+02
 0.33916074027E+02 0.35181055415E+02 0.36274533475E+02 0.37161819954E+02 0.37827957265E+02
 0.38281776153E+02 0.38555109487E+02 0.38695603798E+02 0.38753879432E+02 0.38768503492E+02
 0.38753879432E+02 0.38695603798E+02 0.38555109487E+02 0.38281776153E+02 0.37827957265E+02
 0.37161819954E+02 0.36274533475E+02 0.35181055415E+02 0.33916074027E+02 0.32527600860E+02
 0.31070251081E+02 0.29599154580E+02 0.28164617491E+02 0.26807540810E+02 0.25555981910E+02
 0.24423564518E+02 0.23410311538E+02 0.22505901065E+02 0.21694623515E+02 0.20960787314E+02
 0.20293206658E+02 0.19687755339E+02 0.19147642528E+02 0.18681779850E+02 0.18302083101E+02
 0.18020644220E+02 0.17847460581E+02 0.14486123452E+02 0.14550959465E+02 0.14744621807E+02
 0.15064569730E+02 0.15506720428E+02 0.16066123838E+02 0.16738423990E+02 0.17521979968E+02
 0.18420027204E+02 0.19441936676E+02 0.20602684843E+02 0.21920117179E+02 0.23410311538E+02
 0.25082038879E+02 0.26931685536E+02 0.28939856375E+02 0.31070251081E+02 0.33270622774E+02
 0.35475212556E+02 0.37608357205E+02 0.39589760977E+02 0.41342396672E+02 0.42803331539E+02
 0.43935853235E+02 0.44739006010E+02 0.45249571963E+02 0.45532950370E+02 0.45663437326E+02
 0.45699543356E+02 0.45663437326E+02 0.45532950370E+02 0.45249571963E+02 0.44739006010E+02
 0.43935853235E+02 0.42803331539E+02 0.41342396672E+02 0.39589760977E+02 0.37608357205E+02
 0.35475212556E+02 0.33270622774E+02 0.31070251081E+02 0.28939856375E+02 0.26931685536E+02
 0.25082038879E+02 0.23410311538E+02 0.21920117179E+02 0.20602684843E+02 0.19441936676E+02
 0.18420027204E+02 0.17521979968E+02 0.16738423990E+02 0.16066123838E+02 0.15506720428E+02
 0.15064569730E+02 0.14744621807E+02 0.14550959465E+02 0.11832192764E+02 0.11899740517E+02
 0.12102646655E+02 0.12441612098E+02 0.12917681749E+02 0.13532528208E+02 0.14289416405E+02
 0.15194779350E+02 0.16259853643E+02 0.17501494332E+02 0.18941311268E+02 0.20602684843E+02
 0.22505901065E+02 0.24662339038E+02 0.27069024270E+02 0.29704669383E+02 0.32527600860E+02
 0.35475212556E+02 0.38464506637E+02 0.41394181925E+02 0.44150014846E+02 0.46615699707E+02
 0.48689848406E+02 0.50306533971E+02 0.51452941370E+02 0.52175613291E+02 0.52568650183E+02
 0.52743583997E+02 0.52790112830E+02 0.52743583997E+02 0.52568650183E+02 0.52175613291E+02
 0.51452941370E+02 0.50306533971E+02 0.48689848406E+02 0.46615699707E+02 0.44150014846E+02
 0.41394181925E+02 0.38464506637E+02 0.35475212556E+02 0.32527600860E+02 0.29704669383E+02
 0.27069024270E+02 0.24662339038E+02 0.22505901065E+02 0.20602684843E+02 0.18941311268E+02
 0.17501494332E+02 0.16259853643E+02 0.15194779350E+02 0.14289416405E+02 0.13532528208E+02
 0.12917681749E+02 0.12441612098E+02 0.12102646655E+02 0.11899740517E+02 0.97234591327E+01
 0.97912471226E+01 0.99957459202E+01 0.10340257368E+02 0.10830095373E+02 0.11472725502E+02
 0.12278472644E+02 0.13261737590E+02 0.14442233456E+02 0.15845444808E+02 0.17501494332E+02
 0.19441936676E+02 0.21694623515E+02 0.24277472077E+02 0.27192342066E+02 0.30419962886E+02
 0.33916074027E+02 0.37608357205E+02 0.41394181925E+02 0.45140766369E+02 0.48691058489E+02
 0.51878868346E+02 0.54554386477E+02 0.56616277906E+02 0.58035876646E+02 0.58837521354E+02
 0.59155161376E+02 0.59210370536E+02 0.59202346747E+02 0.59210370536E+02 0.59155161376E+02
 0.58837521354E+02 0.58035876646E+02 0.56616277906E+02 0.54554386477E+02 0.51878868346E+02
 0.48691058489E+02 0.45140766369E+02 0.41394181925E+02 0.37608357205E+02 0.33916074027E+02
 0.30419962886E+02 0.27192342066E+02 0.24277472077E+02 0.21694623515E+02 0.19441936676E+02
 0.17501494332E+02 0.15845444808E+02 0.14442233456E+02 0.13261737590E+02 0.12278472644E+02
 0.11472725502E+02 0.10830095373E+02 0.10340257368E+02 0.99957459202E+01 0.97912471226E+01
 0.80607923884E+01 0.81273678443E+01 0.83288790584E+01 0.86706031496E+01 0.91612059244E+01
 0.98128995056E+01 0.10642077772E+02 0.11670361320E+02 0.12925617332E+02 0.14442233456E+02
 0.16259853643E+02 0.18420027204E+02 0.20960787314E+02 0.23909847486E+02 0.27277440812E+02
 0.31049490351E+02 0.35181055415E+02 0.39589760977E+02 0.44150014846E+02 0.48691058489E+02
 0.53003905758E+02 0.56862214946E+02 0.60058326127E+02 0.62382134498E+02 0.63658413018E+02
 0.63980598097E+02 0.63695152328E+02 0.63262610238E+02 0.63068574793E+02 0.63262610238E+02
 0.63695152328E+02 0.63980598097E+02 0.63658413018E+02 0.62382134498E+02 0.60058326127E+02
 0.56862214946E+02 0.53003905758E+02 0.48691058489E+02 0.44150014846E+02 0.39589760977E+02
 0.35181055415E+02 0.31049490351E+02 0.27277440812E+02 0.23909847486E+02 0.20960787314E+02
 0.18420027204E+02 0.16259853643E+02 0.14442233456E+02 0.12925617332E+02 0.11670361320E+02
 0.10642077772E+02 0.98128995056E+01 0.91612059244E+01 0.86706031496E+01 0.83288790584E+01
 0.81273678443E+01 0.67575299604E+01 0.68222048919E+01 0.70184629846E+01 0.73529736545E+01
 0.78368534973E+01 0.84859425025E+01 0.93215014281E+01 0.10371250432E+02 0.11670361320E+02
 0.13261737590E+02 0.15194779350E+02 0.17521979968E+02 0.20293206658E+02 0.23548156968E+02
 0.27307763791E+02 0.31564947857E+02 0.36274533475E+02 0.41342396672E+02 0.46615699707E+02
 0.51878868346E+02 0.56862214946E+02 0.61267322329E+02 0.64670979980E+02 0.66592533886E+02
 0.66904360546E+02 0.65924515347E+02 0.64330812082E+02 0.62933850649E+02 0.62385258590E+02
 0.62933850649E+02 0.64330812082E+02 0.65924515347E+02 0.66904360546E+02 0.66592533886E+02
 0.64670979980E+02 0.61267322329E+02 0.56862214946E+02 0.51878868346E+02 0.46615699707E+02
 0.41342396672E+02 0.36274533475E+02 0.31564947857E+02 0.27307763791E+02 0.23548156968E+02
 0.20293206658E+02 0.17521979968E+02 0.15194779350E+02 0.13261737590E+02 0.11670361320E+02
 0.10371250432E+02 0.93215014281E+01 0.84859425025E+01 0.78368534973E+01 0.73529736545E+01
 0.70184629846E+01 0.68222048919E+01 0.57426296643E+01 0.58052270344E+01 0.59955314262E+01
 0.63211048182E+01 0.67947119709E+01 0.74347667237E+01 0.82661766147E+01 0.93215014281E+01
 0.10642077772E+02 0.12278472644E+02 0.14289416405E+02 0.16738423990E+02 0.19687755339E+02
 0.23189955529E+02 0.27277440812E+02 0.31950254722E+02 0.37161819954E+02 0.42803331539E+02
 0.48689848406E+02 0.54554386477E+02 0.60058326127E+02 0.64670979980E+02 0.67564574700E+02
 0.68194667848E+02 0.66581893360E+02 0.63374161650E+02 0.59697362267E+02 0.56819778439E+02
 0.55735355072E+02 0.56819778439E+02 0.59697362267E+02 0.63374161650E+02 0.66581893360E+02
 0.68194667848E+02 0.67564574700E+02 0.64670979980E+02 0.60058326127E+02 0.54554386477E+02
 0.48689848406E+02 0.42803331539E+02 0.37161819954E+02 0.31950254722E+02 0.27277440812E+02
 0.23189955529E+02 0.19687755339E+02 0.16738423990E+02 0.14289416405E+02 0.12278472644E+02
 0.10642077772E+02 0.93215014281E+01 0.82661766147E+01 0.74347667237E+01 0.67947119709E+01
 0.63211048182E+01 0.59955314262E+01 0.58052270344E+01 0.49605237486E+01 0.50211686815E+01
 0.52057672213E+01 0.55223894923E+01 0.59848055192E+01 0.66131124520E+01 0.74347667237E+01
 0.84859425025E+01 0.98128995056E+01 0.11472725502E+02 0.13532528208E+02 0.16066123838E+02
 0.19147642528E+02 0.22841995949E+02 0.27192342066E+02 0.32204451546E+02 0.37827957265E+02
 0.43935853235E+02 0.50306533971E+02 0.56616277906E+02 0.62382134498E+02 0.66592533886E+02
 0.68194667848E+02 0.66651235910E+02 0.62203333538E+02 0.55917425838E+02 0.49461569886E+02
 0.44646187800E+02 0.42866479635E+02 0.44646187800E+02 0.49461569886E+02 0.55917425838E+02
 0.62203333538E+02 0.66651235910E+02 0.68194667848E+02 0.66592533886E+02 0.62382134498E+02
 0.56616277906E+02 0.50306533971E+02 0.43935853235E+02 0.37827957265E+02 0.32204451546E+02
 0.27192342066E+02 0.22841995949E+02 0.19147642528E+02 0.16066123838E+02 0.13532528208E+02
 0.11472725502E+02 0.98128995056E+01 0.84859425025E+01 0.74347667237E+01 0.66131124520E+01
 0.59848055192E+01 0.55223894923E+01 0.52057672213E+01 0.50211686815E+01 0.43691872405E+01
 0.44281601971E+01 0.46078114456E+01 0.49164606589E+01 0.53684247656E+01 0.59848055192E+01
 0.67947119709E+01 0.78368534973E+01 0.91612059244E+01 0.10830095373E+02 0.12917681749E+02
 0.15506720428E+02 0.18681779850E+02 0.22518545958E+02 0.27069024270E+02 0.32342396178E+02
 0.38281776153E+02 0.44739006010E+02 0.51452941370E+02 0.58035876646E+02 0.63658413018E+02
 0.66904360546E+02 0.66581893360E+02 0.62203333538E+02 0.54279343759E+02 0.44346428362E+02
 0.34663567577E+02 0.27623697665E+02 0.25050019399E+02 0.27623697665E+02 0.34663567577E+02
 0.44346428362E+02 0.54279343759E+02 0.62203333538E+02 0.66581893360E+02 0.66904360546E+02
 0.63658413018E+02 0.58035876646E+02 0.51452941370E+02 0.44739006010E+02 0.38281776153E+02
 0.32342396178E+02 0.27069024270E+02 0.22518545958E+02 0.18681779850E+02 0.15506720428E+02
 0.12917681749E+02 0.10830095373E+02 0.91612059244E+01 0.78368534973E+01 0.67947119709E+01
 0.59848055192E+01 0.53684247656E+01 0.49164606589E+01 0.46078114456E+01 0.44281601971E+01
 0.39376909835E+01 0.39953402025E+01 0.41710445814E+01 0.44732258165E+01 0.49164606589E+01
 0.55223894923E+01 0.63211048182E+01 0.73529736545E+01 0.86706031496E+01 0.10340257368E+02
 0.12441612098E+02 0.15064569730E+02 0.18302083101E+02 0.22238319213E+02 0.26931685536E+02
 0.32392392504E+02 0.38555109487E+02 0.45249571963E+02 0.52175613291E+02 0.58837521354E+02
 0.63980598097E+02 0.65924515347E+02 0.63374161650E+02 0.55917425838E+02 0.44346428362E+02
 0.30664243224E+02 0.17704993384E+02 0.84229931538E+01 0.50517506551E+01 0.84229931538E+01
 0.17704993384E+02 0.30664243224E+02 0.44346428362E+02 0.55917425838E+02 0.63374161650E+02
 0.65924515347E+02 0.63980598097E+02 0.58837521354E+02 0.52175613291E+02 0.45249571963E+02
 0.38555109487E+02 0.32392392504E+02 0.26931685536E+02 0.22238319213E+02 0.18302083101E+02
 0.15064569730E+02 0.12441612098E+02 0.10340257368E+02 0.86706031496E+01 0.73529736545E+01
 0.63211048182E+01 0.55223894923E+01 0.49164606589E+01 0.44732258165E+01 0.41710445814E+01
 0.39953402025E+01 0.36440177957E+01 0.37007159233E+01 0.38735731793E+01 0.41710445814E+01
 0.46078114456E+01 0.52057672213E+01 0.59955314262E+01 0.70184629846E+01 0.83288790584E+01
 0.99957459202E+01 0.12102646655E+02 0.14744621807E+02 0.18020644220E+02 0.22020809940E+02
 0.26807540810E+02 0.32390434481E+02 0.38695603798E+02 0.45532950370E+02 0.52568650183E+02
 0.59155161376E+02 0.63695152328E+02 0.64330812082E+02 0.59697362267E+02 0.49461569886E+02
 0.34663567577E+02 0.17704993384E+02 0.19049714723E+01 -.93119991483E+01 -.13370038313E+02
 -.93119991483E+01 0.19049714723E+01 0.17704993384E+02 0.34663567577E+02 0.49461569886E+02
 0.59697362267E+02 0.64330812082E+02 0.63695152328E+02 0.59155161376E+02 0.52568650183E+02
 0.45532950370E+02 0.38695603798E+02 0.32390434481E+02 0.26807540810E+02 0.22020809940E+02
 0.18020644220E+02 0.14744621807E+02 0.12102646655E+02 0.99957459202E+01 0.83288790584E+01
 0.70184629846E+01 0.59955314262E+01 0.52057672213E+01 0.46078114456E+01 0.41710445814E+01
 0.38735731793E+01 0.37007159233E+01 0.34734455393E+01 0.35295721615E+01 0.37007159233E+01
 0.39953402025E+01 0.44281601971E+01 0.50211686815E+01 0.58052270344E+01 0.68222048919E+01
 0.81273678443E+01 0.97912471226E+01 0.11899740517E+02 0.14550959465E+02 0.17847460581E+02
 0.21882778653E+02 0.26721410898E+02 0.32371874852E+02 0.38753879432E+02 0.45663437326E+02
 0.52743583997E+02 0.59210370536E+02 0.63262610238E+02 0.62933850649E+02 0.56819778439E+02
 0.44646187800E+02 0.27623697665E+02 0.84229931538E+01 -.93119991483E+01 -.21843260908E+02
 -.26367174716E+02 -.21843260908E+02 -.93119991483E+01 0.84229931538E+01 0.27623697665E+02
 0.44646187800E+02 0.56819778439E+02 0.62933850649E+02 0.63262610238E+02 0.59210370536E+02
 0.52743583997E+02 0.45663437326E+02 0.38753879432E+02 0.32371874852E+02 0.26721410898E+02
 0.21882778653E+02 0.17847460581E+02 0.14550959465E+02 0.11899740517E+02 0.97912471226E+01
 0.81273678443E+01 0.68222048919E+01 0.58052270344E+01 0.50211686815E+01 0.44281601971E+01
 0.39953402025E+01 0.37007159233E+01 0.35295721615E+01 0.34175094604E+01 0.34734455393E+01
 0.36440177957E+01 0.39376909835E+01 0.43691872405E+01 0.49605237486E+01 0.57426296643E+01
 0.67575299604E+01 0.80607923884E+01 0.97234591327E+01 0.11832192764E+02 0.14486123452E+02
 0.17788992940E+02 0.21835454594E+02 0.26690629006E+02 0.32362534635E+02 0.38768503492E+02
 0.45699543356E+02 0.52790112830E+02 0.59202346747E+02 0.63068574793E+02 0.62385258590E+02
 0.55735355072E+02 0.42866479635E+02 0.25050019399E+02 0.50517506551E+01 -.13370038313E+02
 -.26367174716E+02 -.31056122555E+02 -.26367174716E+02 -.13370038313E+02 0.50517506551E+01
 0.25050019399E+02 0.42866479635E+02 0.55735355072E+02 0.62385258590E+02 0.63068574793E+02
 0.59202346747E+02 0.52790112830E+02 0.45699543356E+02 0.38768503492E+02 0.32362534635E+02
 0.26690629006E+02 0.21835454594E+02 0.17788992940E+02 0.14486123452E+02 0.11832192764E+02
 0.97234591327E+01 0.80607923884E+01 0.67575299604E+01 0.57426296643E+01 0.49605237486E+01