   8   8   0   0
  0.2002393E+02  0.5431000E-09  0.5431000E-09  0.5431000E-09  0.1000000E-14
  1.000000000000000E-004
  CAR 
 diamond Si                              
     11.78466796     -7.15716289  301      5.98616011      1.00000000
     -7.157  0.0000E+00  0.0000E+00
     -7.094  0.0000E+00  0.0000E+00
     -7.031  0.0000E+00  0.0000E+00
     -6.968  0.0000E+00  0.0000E+00
     -6.905  0.0000E+00  0.0000E+00
     -6.841  0.0000E+00  0.0000E+00
     -6.778  0.0000E+00  0.0000E+00
     -6.715  0.4220E-16  0.2665E-17
     -6.652  0.3633E-13  0.2297E-14
     -6.589  0.1437E-10  0.9099E-12
     -6.526  0.2609E-08  0.1656E-09
     -6.463  0.2184E-06  0.1396E-07
     -6.399  0.8516E-05  0.5516E-06
     -6.336  0.1575E-03  0.1049E-04
     -6.273  0.1435E-02  0.1011E-03
     -6.210  0.6951E-02  0.5400E-03
     -6.147  0.2013E-01  0.1811E-02
     -6.084  0.3905E-01  0.4277E-02
     -6.021  0.5561E-01  0.7788E-02
     -5.958  0.6726E-01  0.1203E-01
     -5.894  0.8084E-01  0.1714E-01
     -5.831  0.9544E-01  0.2316E-01
     -5.768  0.9887E-01  0.2941E-01
     -5.705  0.9690E-01  0.3553E-01
     -5.642  0.1131E+00  0.4267E-01
     -5.579  0.1379E+00  0.5137E-01
     -5.516  0.1382E+00  0.6009E-01
     -5.452  0.1230E+00  0.6786E-01
     -5.389  0.1311E+00  0.7614E-01
     -5.326  0.1530E+00  0.8580E-01
     -5.263  0.1620E+00  0.9603E-01
     -5.200  0.1673E+00  0.1066E+00
     -5.137  0.1802E+00  0.1180E+00
     -5.074  0.1840E+00  0.1296E+00
     -5.010  0.1706E+00  0.1404E+00
     -4.947  0.1562E+00  0.1502E+00
     -4.884  0.1756E+00  0.1613E+00
     -4.821  0.2269E+00  0.1756E+00
     -4.758  0.2464E+00  0.1912E+00
     -4.695  0.2252E+00  0.2054E+00
     -4.632  0.2147E+00  0.2190E+00
     -4.568  0.2038E+00  0.2318E+00
     -4.505  0.1961E+00  0.2442E+00
     -4.442  0.2364E+00  0.2591E+00
     -4.379  0.2793E+00  0.2768E+00
     -4.316  0.2748E+00  0.2941E+00
     -4.253  0.2603E+00  0.3106E+00
     -4.190  0.2830E+00  0.3284E+00
     -4.126  0.3241E+00  0.3489E+00
     -4.063  0.3230E+00  0.3693E+00
     -4.000  0.3059E+00  0.3886E+00
     -3.937  0.3096E+00  0.4082E+00
     -3.874  0.3172E+00  0.4282E+00
     -3.811  0.3650E+00  0.4512E+00
     -3.748  0.4502E+00  0.4797E+00
     -3.684  0.4642E+00  0.5090E+00
     -3.621  0.3742E+00  0.5326E+00
     -3.558  0.3052E+00  0.5519E+00
     -3.495  0.3435E+00  0.5736E+00
     -3.432  0.4102E+00  0.5995E+00
     -3.369  0.3568E+00  0.6220E+00
     -3.306  0.2447E+00  0.6374E+00
     -3.243  0.2127E+00  0.6509E+00
     -3.179  0.2425E+00  0.6662E+00
     -3.116  0.3051E+00  0.6854E+00
     -3.053  0.3766E+00  0.7092E+00
     -2.990  0.3907E+00  0.7339E+00
     -2.927  0.3272E+00  0.7545E+00
     -2.864  0.2492E+00  0.7703E+00
     -2.801  0.1913E+00  0.7823E+00
     -2.737  0.1513E+00  0.7919E+00
     -2.674  0.1204E+00  0.7995E+00
     -2.611  0.1246E+00  0.8074E+00
     -2.548  0.1658E+00  0.8178E+00
     -2.485  0.2313E+00  0.8324E+00
     -2.422  0.2759E+00  0.8499E+00
     -2.359  0.2500E+00  0.8657E+00
     -2.295  0.1904E+00  0.8777E+00
     -2.232  0.1184E+00  0.8851E+00
     -2.169  0.4758E-01  0.8882E+00
     -2.106  0.1042E-01  0.8888E+00
     -2.043  0.1153E-02  0.8889E+00
     -1.980  0.8197E-04  0.8889E+00
     -1.917  0.5349E-03  0.8889E+00
     -1.853  0.7020E-02  0.8894E+00
     -1.790  0.4659E-01  0.8923E+00
     -1.727  0.1600E+00  0.9024E+00
     -1.664  0.2932E+00  0.9209E+00
     -1.601  0.3017E+00  0.9400E+00
     -1.538  0.2051E+00  0.9529E+00
     -1.475  0.1381E+00  0.9616E+00
     -1.411  0.1147E+00  0.9689E+00
     -1.348  0.1127E+00  0.9760E+00
     -1.285  0.1487E+00  0.9854E+00
     -1.222  0.2511E+00  0.1001E+01
     -1.159  0.4287E+00  0.1028E+01
     -1.096  0.6350E+00  0.1068E+01
     -1.033  0.7568E+00  0.1116E+01
     -0.969  0.7335E+00  0.1163E+01
     -0.906  0.6123E+00  0.1201E+01
     -0.843  0.4162E+00  0.1227E+01
     -0.780  0.2637E+00  0.1244E+01
     -0.717  0.2842E+00  0.1262E+01
     -0.654  0.3733E+00  0.1286E+01
     -0.591  0.3595E+00  0.1308E+01
     -0.528  0.2563E+00  0.1324E+01
     -0.464  0.1750E+00  0.1336E+01
     -0.401  0.1624E+00  0.1346E+01
     -0.338  0.2566E+00  0.1362E+01
     -0.275  0.3961E+00  0.1387E+01
     -0.212  0.3916E+00  0.1412E+01
     -0.149  0.2507E+00  0.1428E+01
     -0.086  0.1332E+00  0.1436E+01
     -0.022  0.9442E-01  0.1442E+01
      0.041  0.1308E+00  0.1450E+01
      0.104  0.2215E+00  0.1464E+01
      0.167  0.2878E+00  0.1482E+01
      0.230  0.2393E+00  0.1497E+01
      0.293  0.1345E+00  0.1506E+01
      0.356  0.9082E-01  0.1512E+01
      0.420  0.8690E-01  0.1517E+01
      0.483  0.8162E-01  0.1522E+01
      0.546  0.1275E+00  0.1530E+01
      0.609  0.2386E+00  0.1545E+01
      0.672  0.2925E+00  0.1564E+01
      0.735  0.2109E+00  0.1577E+01
      0.798  0.9624E-01  0.1583E+01
      0.862  0.3558E-01  0.1586E+01
      0.925  0.2989E-01  0.1587E+01
      0.988  0.6508E-01  0.1592E+01
      1.051  0.1127E+00  0.1599E+01
      1.114  0.1538E+00  0.1608E+01
      1.177  0.1758E+00  0.1619E+01
      1.240  0.1503E+00  0.1629E+01
      1.304  0.1160E+00  0.1636E+01
      1.367  0.1593E+00  0.1646E+01
      1.430  0.2447E+00  0.1662E+01
      1.493  0.3021E+00  0.1681E+01
      1.556  0.3519E+00  0.1703E+01
      1.619  0.4578E+00  0.1732E+01
      1.682  0.6187E+00  0.1771E+01
      1.745  0.6797E+00  0.1814E+01
      1.809  0.5845E+00  0.1851E+01
      1.872  0.4556E+00  0.1880E+01
      1.935  0.3689E+00  0.1903E+01
      1.998  0.3345E+00  0.1924E+01
      2.061  0.3720E+00  0.1948E+01
      2.124  0.4796E+00  0.1978E+01
      2.187  0.5924E+00  0.2015E+01
      2.251  0.5917E+00  0.2053E+01
      2.314  0.4856E+00  0.2083E+01
      2.377  0.4234E+00  0.2110E+01
      2.440  0.4473E+00  0.2138E+01
      2.503  0.5082E+00  0.2170E+01
      2.566  0.5404E+00  0.2204E+01
      2.629  0.4938E+00  0.2236E+01
      2.693  0.4576E+00  0.2265E+01
      2.756  0.5318E+00  0.2298E+01
      2.819  0.6918E+00  0.2342E+01
      2.882  0.7922E+00  0.2392E+01
      2.945  0.7564E+00  0.2440E+01
      3.008  0.6616E+00  0.2481E+01
      3.071  0.5539E+00  0.2516E+01
      3.135  0.4985E+00  0.2548E+01
      3.198  0.6034E+00  0.2586E+01
      3.261  0.7844E+00  0.2635E+01
      3.324  0.7964E+00  0.2686E+01
      3.387  0.6532E+00  0.2727E+01
      3.450  0.5423E+00  0.2761E+01
      3.513  0.5370E+00  0.2795E+01
      3.577  0.5680E+00  0.2831E+01
      3.640  0.5997E+00  0.2869E+01
      3.703  0.6626E+00  0.2911E+01
      3.766  0.6750E+00  0.2953E+01
      3.829  0.5925E+00  0.2991E+01
      3.892  0.5180E+00  0.3023E+01
      3.955  0.4923E+00  0.3054E+01
      4.019  0.4473E+00  0.3083E+01
      4.082  0.4764E+00  0.3113E+01
      4.145  0.6436E+00  0.3153E+01
      4.208  0.7294E+00  0.3199E+01
      4.271  0.6235E+00  0.3239E+01
      4.334  0.4592E+00  0.3268E+01
      4.397  0.3701E+00  0.3291E+01
      4.460  0.3636E+00  0.3314E+01
      4.524  0.4060E+00  0.3340E+01
      4.587  0.4734E+00  0.3370E+01
      4.650  0.4532E+00  0.3398E+01
      4.713  0.3329E+00  0.3419E+01
      4.776  0.2384E+00  0.3434E+01
      4.839  0.2113E+00  0.3448E+01
      4.902  0.2233E+00  0.3462E+01
      4.966  0.2335E+00  0.3477E+01
      5.029  0.2175E+00  0.3490E+01
      5.092  0.1757E+00  0.3501E+01
      5.155  0.1265E+00  0.3509E+01
      5.218  0.1160E+00  0.3517E+01
      5.281  0.1447E+00  0.3526E+01
      5.344  0.1476E+00  0.3535E+01
      5.408  0.1051E+00  0.3542E+01
      5.471  0.6911E-01  0.3546E+01
      5.534  0.5662E-01  0.3550E+01
      5.597  0.4788E-01  0.3553E+01
      5.660  0.3019E-01  0.3555E+01
      5.723  0.1170E-01  0.3555E+01
      5.786  0.2478E-02  0.3556E+01
      5.850  0.2658E-03  0.3556E+01
      5.913  0.1378E-04  0.3556E+01
      5.976  0.3376E-06  0.3556E+01
      6.039  0.9135E-07  0.3556E+01
      6.102  0.5220E-05  0.3556E+01
      6.165  0.1484E-03  0.3556E+01
      6.228  0.2046E-02  0.3556E+01
      6.292  0.1392E-01  0.3557E+01
      6.355  0.4751E-01  0.3560E+01
      6.418  0.8318E-01  0.3565E+01
      6.481  0.8259E-01  0.3570E+01
      6.544  0.7444E-01  0.3575E+01
      6.607  0.1058E+00  0.3581E+01
      6.670  0.1674E+00  0.3592E+01
      6.734  0.2155E+00  0.3606E+01
      6.797  0.2178E+00  0.3619E+01
      6.860  0.2076E+00  0.3632E+01
      6.923  0.2231E+00  0.3647E+01
      6.986  0.2521E+00  0.3662E+01
      7.049  0.2450E+00  0.3678E+01
      7.112  0.2083E+00  0.3691E+01
      7.175  0.2177E+00  0.3705E+01
      7.239  0.2815E+00  0.3723E+01
      7.302  0.3494E+00  0.3745E+01
      7.365  0.4546E+00  0.3773E+01
      7.428  0.5425E+00  0.3808E+01
      7.491  0.5075E+00  0.3840E+01
      7.554  0.4031E+00  0.3865E+01
      7.617  0.3484E+00  0.3887E+01
      7.681  0.4116E+00  0.3913E+01
      7.744  0.5759E+00  0.3949E+01
      7.807  0.7108E+00  0.3994E+01
      7.870  0.7352E+00  0.4041E+01
      7.933  0.7065E+00  0.4085E+01
      7.996  0.6724E+00  0.4128E+01
      8.059  0.6530E+00  0.4169E+01
      8.123  0.6635E+00  0.4211E+01
      8.186  0.6825E+00  0.4254E+01
      8.249  0.6821E+00  0.4297E+01
      8.312  0.6664E+00  0.4339E+01
      8.375  0.5996E+00  0.4377E+01
      8.438  0.4996E+00  0.4409E+01
      8.501  0.4473E+00  0.4437E+01
      8.565  0.4556E+00  0.4466E+01
      8.628  0.4809E+00  0.4496E+01
      8.691  0.4778E+00  0.4526E+01
      8.754  0.4663E+00  0.4556E+01
      8.817  0.5353E+00  0.4589E+01
      8.880  0.6800E+00  0.4632E+01
      8.943  0.8193E+00  0.4684E+01
      9.007  0.9181E+00  0.4742E+01
      9.070  0.9456E+00  0.4802E+01
      9.133  0.8966E+00  0.4858E+01
      9.196  0.8307E+00  0.4911E+01
      9.259  0.8300E+00  0.4963E+01
      9.322  0.7789E+00  0.5012E+01
      9.385  0.6348E+00  0.5052E+01
      9.449  0.5442E+00  0.5087E+01
      9.512  0.5423E+00  0.5121E+01
      9.575  0.6018E+00  0.5159E+01
      9.638  0.6261E+00  0.5199E+01
      9.701  0.5129E+00  0.5231E+01
      9.764  0.4016E+00  0.5256E+01
      9.827  0.4260E+00  0.5283E+01
      9.890  0.5085E+00  0.5315E+01
      9.954  0.5388E+00  0.5349E+01
     10.017  0.4965E+00  0.5381E+01
     10.080  0.4152E+00  0.5407E+01
     10.143  0.3505E+00  0.5429E+01
     10.206  0.3786E+00  0.5453E+01
     10.269  0.4529E+00  0.5482E+01
     10.332  0.4276E+00  0.5509E+01
     10.396  0.2989E+00  0.5527E+01
     10.459  0.1580E+00  0.5537E+01
     10.522  0.7676E-01  0.5542E+01
     10.585  0.5287E-01  0.5546E+01
     10.648  0.4381E-01  0.5548E+01
     10.711  0.3405E-01  0.5550E+01
     10.774  0.3220E-01  0.5553E+01
     10.838  0.2908E-01  0.5554E+01
     10.901  0.1502E-01  0.5555E+01
     10.964  0.3783E-02  0.5556E+01
     11.027  0.4504E-03  0.5556E+01
     11.090  0.2511E-04  0.5556E+01
     11.153  0.6513E-06  0.5556E+01
     11.216  0.7810E-08  0.5556E+01
     11.280  0.4309E-10  0.5556E+01
     11.343  0.1090E-12  0.5556E+01
     11.406  0.1313E-15  0.5556E+01
     11.469  0.0000E+00  0.5556E+01
     11.532  0.0000E+00  0.5556E+01
     11.595  0.0000E+00  0.5556E+01
     11.658  0.0000E+00  0.5556E+01
     11.722  0.0000E+00  0.5556E+01
     11.785  0.0000E+00  0.5556E+01
