The current hostname is p0131.ten.osc.edu
The current working directory is /users/PAA0028/sjtuwjx1994
Switching to the working directory /users/PAA0028/sjtuwjx1994/repos/vasp_tutorials/lessons/lesson_02/kpoint_convergence/10
switching compiler chain
module load intel/19.0.5
module load intelmpi/2019.3
VASP_STD_BIN=/users/PAA0028/sjtuwjx1994/usr/local/vasp/vasp.5.4.1/bin/vasp_std
 running on   40 total cores
 distrk:  each k-point on   40 cores,    1 groups
 distr:  one band on    8 cores,    5 groups
 using from now: INCAR     
 vasp.5.4.1 05Feb16 (build Feb 24 2020 14:33:01) complex                        
  
 POSCAR found type information on POSCAR  Si
 POSCAR found :  1 types and       8 ions
 scaLAPACK will be used
 LDA part: xc-table for Pade appr. of Perdew
 POSCAR, INCAR and KPOINTS ok, starting setup
 FFT: planning ...
 WAVECAR not read
 entering main loop
       N       E                     dE             d eps       ncg     rms          rms(c)
DAV:   1     0.298622742971E+02    0.29862E+02   -0.78675E+03  1750   0.561E+02
DAV:   2    -0.413110341276E+02   -0.71173E+02   -0.68340E+02  2300   0.111E+02
DAV:   3    -0.439693987628E+02   -0.26584E+01   -0.26421E+01  2305   0.208E+01    0.112E+01
DAV:   4    -0.435013946728E+02    0.46800E+00   -0.44378E-01  2310   0.314E+00    0.664E+00
DAV:   5    -0.432728963331E+02    0.22850E+00   -0.49449E-01  2080   0.280E+00    0.385E-01
DAV:   6    -0.432774725289E+02   -0.45762E-02   -0.19426E-02  2255   0.622E-01    0.204E-01
DAV:   7    -0.432790846282E+02   -0.16121E-02   -0.30320E-03  2005   0.234E-01    0.119E-01
DAV:   8    -0.432791874898E+02   -0.10286E-03   -0.15461E-04  1765   0.620E-02    0.627E-02
DAV:   9    -0.432792421326E+02   -0.54643E-04   -0.73587E-05  1570   0.437E-02
   1 F= -.43279242E+02 E0= -.43279242E+02  d E =-.432792E+02
 curvature:   0.00 expect dE= 0.000E+00 dE for cont linesearch  0.000E+00
 trial: gam= 0.00000 g(F)=  0.158E-58 g(S)=  0.109E+00 ort = 0.000E+00 (trialstep = 0.100E+01)
 search vector abs. value=  0.109E+00
 bond charge predicted
       N       E                     dE             d eps       ncg     rms          rms(c)
DAV:   1    -0.432925751081E+02   -0.13388E-01   -0.26409E+00  2020   0.640E+00
DAV:   2    -0.432985022757E+02   -0.59272E-02   -0.59271E-02  2275   0.103E+00
DAV:   3    -0.432985489157E+02   -0.46640E-04   -0.46640E-04  2195   0.104E-01    0.184E+00
DAV:   4    -0.432405586146E+02    0.57990E-01   -0.27878E-02  1800   0.595E-01    0.911E-01
DAV:   5    -0.432120342531E+02    0.28524E-01   -0.42273E-02  2075   0.740E-01    0.305E-01
DAV:   6    -0.432118158721E+02    0.21838E-03   -0.20253E-03  2135   0.201E-01    0.135E-01
DAV:   7    -0.432117544351E+02    0.61437E-04   -0.22761E-04  1940   0.541E-02
   2 F= -.43211754E+02 E0= -.43211754E+02  d E =0.674877E-01
 trial-energy change:    0.067488  1 .order    0.063835   -0.109416    0.237085
 step:   0.3024(harm=  0.3158)  dis= 0.00000  next Energy=   -43.295686 (dE=-0.164E-01)
 bond charge predicted
       N       E                     dE             d eps       ncg     rms          rms(c)
DAV:   1    -0.433344233625E+02   -0.12261E+00   -0.13286E+00  2005   0.464E+00
DAV:   2    -0.433380107585E+02   -0.35874E-02   -0.35874E-02  2305   0.756E-01
DAV:   3    -0.433380301923E+02   -0.19434E-04   -0.19433E-04  2020   0.708E-02    0.131E+00
DAV:   4    -0.433092792929E+02    0.28751E-01   -0.13781E-02  1780   0.425E-01    0.636E-01
DAV:   5    -0.432953821918E+02    0.13897E-01   -0.20404E-02  2020   0.521E-01    0.231E-01
DAV:   6    -0.432953659947E+02    0.16197E-04   -0.98596E-04  2125   0.144E-01
   3 F= -.43295366E+02 E0= -.43295366E+02  d E =-.161239E-01
 curvature:  -0.16 expect dE=-0.425E-04 dE for cont linesearch -0.425E-04
 ZBRENT: interpolating
 opt :   0.2881  next Energy=   -43.295405 (dE=-0.162E-01)
 bond charge predicted
       N       E                     dE             d eps       ncg     rms          rms(c)
DAV:   1    -0.432952983846E+02    0.83807E-04   -0.32004E-04  1830   0.767E-02
DAV:   2    -0.432952989623E+02   -0.57769E-06   -0.57768E-06   930   0.993E-03
DAV:   3    -0.432952990070E+02   -0.44700E-07   -0.44624E-07   935   0.337E-03    0.342E-02
DAV:   4    -0.432952914537E+02    0.75533E-05   -0.40753E-06   930   0.797E-03
   4 F= -.43295291E+02 E0= -.43295291E+02  d E =-.160493E-01
 curvature:  -0.14 expect dE=-0.465E-05 dE for cont linesearch -0.465E-05
 trial: gam=-0.01688 g(F)=  0.212E-59 g(S)=  0.323E-04 ort = 0.188E-02 (trialstep = 0.858E+00)
 search vector abs. value=  0.961E-08
 reached required accuracy - stopping structural energy minimisation
 writing wavefunctions

-----------------------
Resources requested:
nodes=1:ppn=40
mem=190440mb
-----------------------
Resources used:
cput=00:06:42
walltime=00:00:12
mem=0.002GB
vmem=0.000GB
-----------------------
Resource units charged (estimate):
0.013 RUs
-----------------------
