       N       E                     dE             d eps       ncg     rms          rms(c)
DAV:   1     0.298622742971E+02    0.29862E+02   -0.78675E+03  1750   0.561E+02
DAV:   2    -0.413110341276E+02   -0.71173E+02   -0.68340E+02  2300   0.111E+02
DAV:   3    -0.439693987628E+02   -0.26584E+01   -0.26421E+01  2305   0.208E+01    0.112E+01
DAV:   4    -0.435013946728E+02    0.46800E+00   -0.44378E-01  2310   0.314E+00    0.664E+00
DAV:   5    -0.432728963331E+02    0.22850E+00   -0.49449E-01  2080   0.280E+00    0.385E-01
DAV:   6    -0.432774725289E+02   -0.45762E-02   -0.19426E-02  2255   0.622E-01    0.204E-01
DAV:   7    -0.432790846282E+02   -0.16121E-02   -0.30320E-03  2005   0.234E-01    0.119E-01
DAV:   8    -0.432791874898E+02   -0.10286E-03   -0.15461E-04  1765   0.620E-02    0.627E-02
DAV:   9    -0.432792421326E+02   -0.54643E-04   -0.73587E-05  1570   0.437E-02
   1 F= -.43279242E+02 E0= -.43279242E+02  d E =-.432792E+02
       N       E                     dE             d eps       ncg     rms          rms(c)
DAV:   1    -0.432925751081E+02   -0.13388E-01   -0.26409E+00  2020   0.640E+00
DAV:   2    -0.432985022757E+02   -0.59272E-02   -0.59271E-02  2275   0.103E+00
DAV:   3    -0.432985489157E+02   -0.46640E-04   -0.46640E-04  2195   0.104E-01    0.184E+00
DAV:   4    -0.432405586146E+02    0.57990E-01   -0.27878E-02  1800   0.595E-01    0.911E-01
DAV:   5    -0.432120342531E+02    0.28524E-01   -0.42273E-02  2075   0.740E-01    0.305E-01
DAV:   6    -0.432118158721E+02    0.21838E-03   -0.20253E-03  2135   0.201E-01    0.135E-01
DAV:   7    -0.432117544351E+02    0.61437E-04   -0.22761E-04  1940   0.541E-02
   2 F= -.43211754E+02 E0= -.43211754E+02  d E =0.674877E-01
       N       E                     dE             d eps       ncg     rms          rms(c)
DAV:   1    -0.433344233625E+02   -0.12261E+00   -0.13286E+00  2005   0.464E+00
DAV:   2    -0.433380107585E+02   -0.35874E-02   -0.35874E-02  2305   0.756E-01
DAV:   3    -0.433380301923E+02   -0.19434E-04   -0.19433E-04  2020   0.708E-02    0.131E+00
DAV:   4    -0.433092792929E+02    0.28751E-01   -0.13781E-02  1780   0.425E-01    0.636E-01
DAV:   5    -0.432953821918E+02    0.13897E-01   -0.20404E-02  2020   0.521E-01    0.231E-01
DAV:   6    -0.432953659947E+02    0.16197E-04   -0.98596E-04  2125   0.144E-01
   3 F= -.43295366E+02 E0= -.43295366E+02  d E =-.161239E-01
       N       E                     dE             d eps       ncg     rms          rms(c)
DAV:   1    -0.432952983846E+02    0.83807E-04   -0.32004E-04  1830   0.767E-02
DAV:   2    -0.432952989623E+02   -0.57769E-06   -0.57768E-06   930   0.993E-03
DAV:   3    -0.432952990070E+02   -0.44700E-07   -0.44624E-07   935   0.337E-03    0.342E-02
DAV:   4    -0.432952914537E+02    0.75533E-05   -0.40753E-06   930   0.797E-03
   4 F= -.43295291E+02 E0= -.43295291E+02  d E =-.160493E-01
