 vasp.5.4.1 05Feb16 (build Feb 24 2020 14:33:01) complex                        
  
 executed on           IFC91_ompi date 2020.02.27  21:53:13
 running on   40 total cores
 distrk:  each k-point on   40 cores,    1 groups
 distr:  one band on NCORES_PER_BAND=   8 cores,    5 groups


--------------------------------------------------------------------------------------------------------


 INCAR:
 POTCAR:    PAW_PBE Si 05Jan2001                  
 POTCAR:    PAW_PBE Si 05Jan2001                  
   VRHFIN =Si: s2p2                                                             
   LEXCH  = PE                                                                  
   EATOM  =   103.0669 eV,    7.5752 Ry                                         
                                                                                
   TITEL  = PAW_PBE Si 05Jan2001                                                
   LULTRA =        F    use ultrasoft PP ?                                      
   IUNSCR =        1    unscreen: 0-lin 1-nonlin 2-no                           
   RPACOR =    1.500    partial core radius                                     
   POMASS =   28.085; ZVAL   =    4.000    mass and valenz                      
   RCORE  =    1.900    outmost cutoff radius                                   
   RWIGS  =    2.480; RWIGS  =    1.312    wigner-seitz radius (au A)           
   ENMAX  =  245.345; ENMIN  =  184.009 eV                                      
   ICORE  =        2    local potential                                         
   LCOR   =        T    correct aug charges                                     
   LPAW   =        T    paw PP                                                  
   EAUG   =  322.069                                                            
   DEXC   =    0.000                                                            
   RMAX   =    1.950    core radius for proj-oper                               
   RAUG   =    1.300    factor for augmentation sphere                          
   RDEP   =    1.993    radius for radial grids                                 
   RDEPT  =    1.837    core radius for aug-charge                              
                                                                                
   Atomic configuration                                                         
    6 entries                                                                   
     n  l   j            E        occ.                                          
     1  0  0.50     -1785.8828   2.0000                                         
     2  0  0.50      -139.4969   2.0000                                         
     2  1  1.50       -95.5546   6.0000                                         
     3  0  0.50       -10.8127   2.0000                                         
     3  1  0.50        -4.0811   2.0000                                         
     3  2  1.50        -4.0817   0.0000                                         
   Description                                                                  
     l       E           TYP  RCUT    TYP  RCUT                                 
     0    -10.8127223     23  1.900                                             
     0     -7.6451159     23  1.900                                             
     1     -4.0811372     23  1.900                                             
     1      2.4879257     23  1.900                                             
     2     -4.0817478      7  1.900                                             
  local pseudopotential read in
  partial core-charges read in
  partial kinetic energy density read in
  atomic valenz-charges read in
  non local Contribution for L=           0  read in
    real space projection operators read in
  non local Contribution for L=           0  read in
    real space projection operators read in
  non local Contribution for L=           1  read in
    real space projection operators read in
  non local Contribution for L=           1  read in
    real space projection operators read in
    PAW grid and wavefunctions read in
 
   number of l-projection  operators is LMAX  =           4
   number of lm-projection operators is LMMAX =           8
 
  PAW_PBE Si 05Jan2001                  :
 energy of atom  1       EATOM= -103.0669
 kinetic energy error for atom=    0.0061 (will be added to EATOM!!)
 
 
 POSCAR: Si dia                                  
  positions in direct lattice
  No initial velocities read in
 exchange correlation table for  LEXCH =        8
   RHO(1)=    0.500       N(1)  =     2000
   RHO(2)=  100.500       N(2)  =     4000
 


--------------------------------------------------------------------------------------------------------


 ion  position               nearest neighbor table
   1  0.000  0.000  0.000-   5 2.35   6 2.35   7 2.35   8 2.35
   2  0.000  0.500  0.500-   5 2.35   6 2.35   7 2.35   8 2.35
   3  0.500  0.000  0.500-   5 2.35   6 2.35   7 2.35   8 2.35
   4  0.500  0.500  0.000-   5 2.35   6 2.35   7 2.35   8 2.35
   5  0.250  0.250  0.250-   1 2.35   2 2.35   3 2.35   4 2.35
   6  0.750  0.750  0.250-   1 2.35   2 2.35   3 2.35   4 2.35
   7  0.750  0.250  0.750-   1 2.35   2 2.35   3 2.35   4 2.35
   8  0.250  0.750  0.750-   1 2.35   2 2.35   3 2.35   4 2.35
 
  LATTYP: Found a simple cubic cell.
 ALAT       =     5.4310000000
  
  Lattice vectors:
  
 A1 = (   5.4310000000,   0.0000000000,   0.0000000000)
 A2 = (   0.0000000000,   5.4310000000,   0.0000000000)
 A3 = (   0.0000000000,   0.0000000000,   5.4310000000)


Analysis of symmetry for initial positions (statically):
=====================================================================
 Subroutine PRICEL returns following result:
 
  LATTYP: Found a face centered cubic cell.
 ALAT       =     5.4310000000
  
  Lattice vectors:
  
 A1 = (   2.7155000000,   2.7155000000,   0.0000000000)
 A2 = (   2.7155000000,   0.0000000000,  -2.7155000000)
 A3 = (   0.0000000000,   2.7155000000,  -2.7155000000)
 
   4 primitive cells build up your supercell.
 

 Routine SETGRP: Setting up the symmetry group for a 
 simple cubic supercell.


 Subroutine GETGRP returns: Found 48 space group operations
 (whereof 24 operations were pure point group operations)
 out of a pool of 48 trial point group operations.


The static configuration has the point symmetry T_d .
 The point group associated with its full space group is O_h .


Analysis of symmetry for dynamics (positions and initial velocities):
=====================================================================
 Subroutine PRICEL returns following result:
 
  LATTYP: Found a face centered cubic cell.
 ALAT       =     5.4310000000
  
  Lattice vectors:
  
 A1 = (   2.7155000000,   2.7155000000,   0.0000000000)
 A2 = (   2.7155000000,   0.0000000000,  -2.7155000000)
 A3 = (   0.0000000000,   2.7155000000,  -2.7155000000)
 
   4 primitive cells build up your supercell.
 

 Routine SETGRP: Setting up the symmetry group for a 
 simple cubic supercell.


 Subroutine GETGRP returns: Found 48 space group operations
 (whereof 24 operations were pure point group operations)
 out of a pool of 48 trial point group operations.


The dynamic configuration has the point symmetry T_d .
 The point group associated with its full space group is O_h .


 Subroutine INISYM returns: Found 48 space group operations
 (whereof 24 operations are pure point group operations),
 and found     4 'primitive' translations

 
 
 KPOINTS: k-points                                

Automatic generation of k-mesh.
Space group operators:
 irot       det(A)        alpha          n_x          n_y          n_z        tau_x        tau_y        tau_z
    1     1.000000     0.000001     1.000000     0.000000     0.000000     0.000000     0.000000     0.000000
    2     1.000000   120.000000    -0.577350    -0.577350    -0.577350     0.000000     0.000000     0.000000
    3     1.000000   120.000000     0.577350     0.577350     0.577350     0.000000     0.000000     0.000000
    4    -1.000000    90.000000     0.000000     0.000000    -1.000000     0.000000     0.000000     0.000000
    5    -1.000000   180.000000     0.000000     0.707107     0.707107     0.000000     0.000000     0.000000
    6    -1.000000    90.000000     0.000000     1.000000     0.000000     0.000000     0.000000     0.000000
    7     1.000000   180.000000     0.000000     0.000000     1.000000     0.000000     0.000000     0.000000
    8     1.000000   120.000000    -0.577350     0.577350     0.577350     0.000000     0.000000     0.000000
    9     1.000000   120.000000    -0.577350     0.577350    -0.577350     0.000000     0.000000     0.000000
   10    -1.000000    90.000000     0.000000     0.000000     1.000000     0.000000     0.000000     0.000000
   11    -1.000000    90.000000    -1.000000     0.000000     0.000000     0.000000     0.000000     0.000000
   12    -1.000000   180.000000     0.707107     0.000000     0.707107     0.000000     0.000000     0.000000
   13     1.000000   120.000000     0.577350    -0.577350     0.577350     0.000000     0.000000     0.000000
   14     1.000000   120.000000    -0.577350    -0.577350     0.577350     0.000000     0.000000     0.000000
   15     1.000000   180.000000     1.000000     0.000000     0.000000     0.000000     0.000000     0.000000
   16    -1.000000    90.000000     0.000000    -1.000000     0.000000     0.000000     0.000000     0.000000
   17    -1.000000   180.000000     0.707107     0.707107     0.000000     0.000000     0.000000     0.000000
   18    -1.000000    90.000000     1.000000     0.000000     0.000000     0.000000     0.000000     0.000000
   19     1.000000   120.000000     0.577350    -0.577350    -0.577350     0.000000     0.000000     0.000000
   20     1.000000   180.000000     0.000000     1.000000     0.000000     0.000000     0.000000     0.000000
   21     1.000000   120.000000     0.577350     0.577350    -0.577350     0.000000     0.000000     0.000000
   22    -1.000000   180.000000     0.000000    -0.707107     0.707107     0.000000     0.000000     0.000000
   23    -1.000000   180.000000     0.707107    -0.707107     0.000000     0.000000     0.000000     0.000000
   24    -1.000000   180.000000     0.707107     0.000000    -0.707107     0.000000     0.000000     0.000000
   25    -1.000000     0.000001     1.000000     0.000000     0.000000     0.750000     0.750000    -0.750000
   26    -1.000000   120.000000    -0.577350    -0.577350    -0.577350     0.750000     0.750000    -0.750000
   27    -1.000000   120.000000     0.577350     0.577350     0.577350     0.750000     0.750000    -0.750000
   28     1.000000    90.000000     0.000000     0.000000    -1.000000     0.750000     0.750000    -0.750000
   29     1.000000   180.000000     0.000000     0.707107     0.707107     0.750000     0.750000    -0.750000
   30     1.000000    90.000000     0.000000     1.000000     0.000000     0.750000     0.750000    -0.750000
   31    -1.000000   180.000000     0.000000     0.000000     1.000000     0.750000     0.750000    -0.750000
   32    -1.000000   120.000000    -0.577350     0.577350     0.577350     0.750000     0.750000    -0.750000
   33    -1.000000   120.000000    -0.577350     0.577350    -0.577350     0.750000     0.750000    -0.750000
   34     1.000000    90.000000     0.000000     0.000000     1.000000     0.750000     0.750000    -0.750000
   35     1.000000    90.000000    -1.000000     0.000000     0.000000     0.750000     0.750000    -0.750000
   36     1.000000   180.000000     0.707107     0.000000     0.707107     0.750000     0.750000    -0.750000
   37    -1.000000   120.000000     0.577350    -0.577350     0.577350     0.750000     0.750000    -0.750000
   38    -1.000000   120.000000    -0.577350    -0.577350     0.577350     0.750000     0.750000    -0.750000
   39    -1.000000   180.000000     1.000000     0.000000     0.000000     0.750000     0.750000    -0.750000
   40     1.000000    90.000000     0.000000    -1.000000     0.000000     0.750000     0.750000    -0.750000
   41     1.000000   180.000000     0.707107     0.707107     0.000000     0.750000     0.750000    -0.750000
   42     1.000000    90.000000     1.000000     0.000000     0.000000     0.750000     0.750000    -0.750000
   43    -1.000000   120.000000     0.577350    -0.577350    -0.577350     0.750000     0.750000    -0.750000
   44    -1.000000   180.000000     0.000000     1.000000     0.000000     0.750000     0.750000    -0.750000
   45    -1.000000   120.000000     0.577350     0.577350    -0.577350     0.750000     0.750000    -0.750000
   46     1.000000   180.000000     0.000000    -0.707107     0.707107     0.750000     0.750000    -0.750000
   47     1.000000   180.000000     0.707107    -0.707107     0.000000     0.750000     0.750000    -0.750000
   48     1.000000   180.000000     0.707107     0.000000    -0.707107     0.750000     0.750000    -0.750000
 
 Subroutine IBZKPT returns following result:
 ===========================================
 
 Found     35 irreducible k-points:
 
 Following reciprocal coordinates:
            Coordinates               Weight
  0.050000  0.050000  0.050000      8.000000
  0.150000  0.050000  0.050000     24.000000
  0.250000  0.050000  0.050000     24.000000
  0.350000  0.050000  0.050000     24.000000
  0.450000  0.050000  0.050000     24.000000
  0.150000  0.150000  0.050000     24.000000
  0.250000  0.150000  0.050000     48.000000
  0.350000  0.150000  0.050000     48.000000
  0.450000  0.150000  0.050000     48.000000
  0.250000  0.250000  0.050000     24.000000
  0.350000  0.250000  0.050000     48.000000
  0.450000  0.250000  0.050000     48.000000
  0.350000  0.350000  0.050000     24.000000
  0.450000  0.350000  0.050000     48.000000
  0.450000  0.450000  0.050000     24.000000
  0.150000  0.150000  0.150000      8.000000
  0.250000  0.150000  0.150000     24.000000
  0.350000  0.150000  0.150000     24.000000
  0.450000  0.150000  0.150000     24.000000
  0.250000  0.250000  0.150000     24.000000
  0.350000  0.250000  0.150000     48.000000
  0.450000  0.250000  0.150000     48.000000
  0.350000  0.350000  0.150000     24.000000
  0.450000  0.350000  0.150000     48.000000
  0.450000  0.450000  0.150000     24.000000
  0.250000  0.250000  0.250000      8.000000
  0.350000  0.250000  0.250000     24.000000
  0.450000  0.250000  0.250000     24.000000
  0.350000  0.350000  0.250000     24.000000
  0.450000  0.350000  0.250000     48.000000
  0.450000  0.450000  0.250000     24.000000
  0.350000  0.350000  0.350000      8.000000
  0.450000  0.350000  0.350000     24.000000
  0.450000  0.450000  0.350000     24.000000
  0.450000  0.450000  0.450000      8.000000
 
 Following cartesian coordinates:
            Coordinates               Weight
  0.050000  0.050000  0.050000      8.000000
  0.150000  0.050000  0.050000     24.000000
  0.250000  0.050000  0.050000     24.000000
  0.350000  0.050000  0.050000     24.000000
  0.450000  0.050000  0.050000     24.000000
  0.150000  0.150000  0.050000     24.000000
  0.250000  0.150000  0.050000     48.000000
  0.350000  0.150000  0.050000     48.000000
  0.450000  0.150000  0.050000     48.000000
  0.250000  0.250000  0.050000     24.000000
  0.350000  0.250000  0.050000     48.000000
  0.450000  0.250000  0.050000     48.000000
  0.350000  0.350000  0.050000     24.000000
  0.450000  0.350000  0.050000     48.000000
  0.450000  0.450000  0.050000     24.000000
  0.150000  0.150000  0.150000      8.000000
  0.250000  0.150000  0.150000     24.000000
  0.350000  0.150000  0.150000     24.000000
  0.450000  0.150000  0.150000     24.000000
  0.250000  0.250000  0.150000     24.000000
  0.350000  0.250000  0.150000     48.000000
  0.450000  0.250000  0.150000     48.000000
  0.350000  0.350000  0.150000     24.000000
  0.450000  0.350000  0.150000     48.000000
  0.450000  0.450000  0.150000     24.000000
  0.250000  0.250000  0.250000      8.000000
  0.350000  0.250000  0.250000     24.000000
  0.450000  0.250000  0.250000     24.000000
  0.350000  0.350000  0.250000     24.000000
  0.450000  0.350000  0.250000     48.000000
  0.450000  0.450000  0.250000     24.000000
  0.350000  0.350000  0.350000      8.000000
  0.450000  0.350000  0.350000     24.000000
  0.450000  0.450000  0.350000     24.000000
  0.450000  0.450000  0.450000      8.000000
 


--------------------------------------------------------------------------------------------------------




 Dimension of arrays:
   k-points           NKPTS =     35   k-points in BZ     NKDIM =     35   number of bands    NBANDS=     25
   number of dos      NEDOS =    301   number of ions     NIONS =      8
   non local maximal  LDIM  =      4   non local SUM 2l+1 LMDIM =      8
   total plane-waves  NPLWV =  21952
   max r-space proj   IRMAX =      1   max aug-charges    IRDMAX=   4781
   dimension x,y,z NGX =    28 NGY =   28 NGZ =   28
   dimension x,y,z NGXF=    56 NGYF=   56 NGZF=   56
   support grid    NGXF=    56 NGYF=   56 NGZF=   56
   ions per type =               8
 NGX,Y,Z   is equivalent  to a cutoff of   8.57,  8.57,  8.57 a.u.
 NGXF,Y,Z  is equivalent  to a cutoff of  17.14, 17.14, 17.14 a.u.


 I would recommend the setting:
   dimension x,y,z NGX =    27 NGY =   27 NGZ =   27
 SYSTEM =  diamond Si                              
 POSCAR =  Si dia                                  

 Startparameter for this run:
   NWRITE =      2    write-flag & timer
   PREC   = accura    normal or accurate (medium, high low for compatibility)
   ISTART =      0    job   : 0-new  1-cont  2-samecut
   ICHARG =      2    charge: 1-file 2-atom 10-const
   ISPIN  =      1    spin polarized calculation?
   LNONCOLLINEAR =      F non collinear calculations
   LSORBIT =      F    spin-orbit coupling
   INIWAV =      1    electr: 0-lowe 1-rand  2-diag
   LASPH  =      F    aspherical Exc in radial PAW
   METAGGA=      F    non-selfconsistent MetaGGA calc.

 Electronic Relaxation 1
   ENCUT  =  240.0 eV  17.64 Ry    4.20 a.u.   6.86  6.86  6.86*2*pi/ulx,y,z
   ENINI  =  240.0     initial cutoff
   ENAUG  =  322.1 eV  augmentation charge cutoff
   NELM   =     60;   NELMIN=  0; NELMDL=  3     # of ELM steps 
   EDIFF  = 0.1E-03   stopping-criterion for ELM
   LREAL  =      F    real-space projection
   NLSPLINE    = F    spline interpolate recip. space projectors
   LCOMPAT=      F    compatible to vasp.4.4
   GGA_COMPAT  = T    GGA compatible to vasp.4.4-vasp.4.6
   LMAXPAW     = -100 max onsite density
   LMAXMIX     =    2 max onsite mixed and CHGCAR
   VOSKOWN=      0    Vosko Wilk Nusair interpolation
   ROPT   =    0.00000
 Ionic relaxation
   EDIFFG = -.1E-01   stopping-criterion for IOM
   NSW    =      9    number of steps for IOM
   NBLOCK =      1;   KBLOCK =      9    inner block; outer block 
   IBRION =      2    ionic relax: 0-MD 1-quasi-New 2-CG
   NFREE  =      1    steps in history (QN), initial steepest desc. (CG)
   ISIF   =      3    stress and relaxation
   IWAVPR =     11    prediction:  0-non 1-charg 2-wave 3-comb
   ISYM   =      2    0-nonsym 1-usesym 2-fastsym
   LCORR  =      T    Harris-Foulkes like correction to forces

   POTIM  = 1.0000    time-step for ionic-motion
   TEIN   =    0.0    initial temperature
   TEBEG  =    0.0;   TEEND  =   0.0 temperature during run
   SMASS  =  -3.00    Nose mass-parameter (am)
   estimated Nose-frequenzy (Omega)   =  0.10E-29 period in steps =****** mass=  -0.674E-27a.u.
   SCALEE = 1.0000    scale energy and forces
   NPACO  =    256;   APACO  = 16.0  distance and # of slots for P.C.
   PSTRESS=    0.0 pullay stress

  Mass of Ions in am
   POMASS =  28.09
  Ionic Valenz
   ZVAL   =   4.00
  Atomic Wigner-Seitz radii
   RWIGS  =  -1.00
  virtual crystal weights 
   VCA    =   1.00
   NELECT =      32.0000    total number of electrons
   NUPDOWN=      -1.0000    fix difference up-down

 DOS related values:
   EMIN   =  10.00;   EMAX   =-10.00  energy-range for DOS
   EFERMI =   0.00
   ISMEAR =     0;   SIGMA  =   0.10  broadening in eV -4-tet -1-fermi 0-gaus

 Electronic relaxation 2 (details)
   IALGO  =     38    algorithm
   LDIAG  =      T    sub-space diagonalisation (order eigenvalues)
   LSUBROT=      F    optimize rotation matrix (better conditioning)
   TURBO    =      0    0=normal 1=particle mesh
   IRESTART =      0    0=no restart 2=restart with 2 vectors
   NREBOOT  =      0    no. of reboots
   NMIN     =      0    reboot dimension
   EREF     =   0.00    reference energy to select bands
   IMIX   =      4    mixing-type and parameters
     AMIX     =   0.40;   BMIX     =  1.00
     AMIX_MAG =   1.60;   BMIX_MAG =  1.00
     AMIN     =   0.10
     WC   =   100.;   INIMIX=   1;  MIXPRE=   1;  MAXMIX= -45

 Intra band minimization:
   WEIMIN = 0.0010     energy-eigenvalue tresh-hold
   EBREAK =  0.10E-05  absolut break condition
   DEPER  =   0.30     relativ break condition  

   TIME   =   0.40     timestep for ELM

  volume/ion in A,a.u.               =      20.02       135.13
  Fermi-wavevector in a.u.,A,eV,Ry     =   0.956999  1.808467 12.460868  0.915848
  Thomas-Fermi vector in A             =   2.085978
 
 Write flags
   LWAVE  =      T    write WAVECAR
   LCHARG =      T    write CHGCAR
   LVTOT  =      F    write LOCPOT, total local potential
   LVHAR  =      F    write LOCPOT, Hartree potential only
   LELF   =      F    write electronic localiz. function (ELF)
   LORBIT =      0    0 simple, 1 ext, 2 COOP (PROOUT)


 Dipole corrections
   LMONO  =      F    monopole corrections only (constant potential shift)
   LDIPOL =      F    correct potential (dipole corrections)
   IDIPOL =      0    1-x, 2-y, 3-z, 4-all directions 
   EPSILON=  1.0000000 bulk dielectric constant

 Exchange correlation treatment:
   GGA     =    --    GGA type
   LEXCH   =     8    internal setting for exchange type
   VOSKOWN=      0    Vosko Wilk Nusair interpolation
   LHFCALC =     F    Hartree Fock is set to
   LHFONE  =     F    Hartree Fock one center treatment
   AEXX    =    0.0000 exact exchange contribution

 Linear response parameters
   LEPSILON=     F    determine dielectric tensor
   LRPA    =     F    only Hartree local field effects (RPA)
   LNABLA  =     F    use nabla operator in PAW spheres
   LVEL    =     F    velocity operator in full k-point grid
   LINTERFAST=   F  fast interpolation
   KINTER  =     0    interpolate to denser k-point grid
   CSHIFT  =0.1000    complex shift for real part using Kramers Kronig
   OMEGAMAX=  -1.0    maximum frequency
   DEG_THRESHOLD= 0.2000000E-02 threshold for treating states as degnerate
   RTIME   =    0.100 relaxation time in fs

 Orbital magnetization related:
   ORBITALMAG=     F  switch on orbital magnetization
   LCHIMAG   =     F  perturbation theory with respect to B field
   DQ        =  0.001000  dq finite difference perturbation B field



--------------------------------------------------------------------------------------------------------


 conjugate gradient relaxation of ions
 charge density and potential will be updated during run
 non-spin polarized calculation
 Variant of blocked Davidson
 Davidson routine will perform the subspace rotation
 perform sub-space diagonalisation
    after iterative eigenvector-optimisation
 modified Broyden-mixing scheme, WC =      100.0
 initial mixing is a Kerker type mixing with AMIX =  0.4000 and BMIX =      1.0000
 Hartree-type preconditioning will be used
 using additional bands            9
 reciprocal scheme for non local part
 use partial core corrections
 calculate Harris-corrections to forces 
   (improved forces if not selfconsistent)
 use gradient corrections 
 use of overlap-Matrix (Vanderbilt PP)
 Gauss-broadening in eV      SIGMA  =   0.10


--------------------------------------------------------------------------------------------------------


  energy-cutoff  :      240.00
  volume of cell :      160.19
      direct lattice vectors                 reciprocal lattice vectors
     5.431000000  0.000000000  0.000000000     0.184128153  0.000000000  0.000000000
     0.000000000  5.431000000  0.000000000     0.000000000  0.184128153  0.000000000
     0.000000000  0.000000000  5.431000000     0.000000000  0.000000000  0.184128153

  length of vectors
     5.431000000  5.431000000  5.431000000     0.184128153  0.184128153  0.184128153


 
 k-points in units of 2pi/SCALE and weight: k-points                                
   0.05000000  0.05000000  0.05000000       0.008
   0.15000000  0.05000000  0.05000000       0.024
   0.25000000  0.05000000  0.05000000       0.024
   0.35000000  0.05000000  0.05000000       0.024
   0.45000000  0.05000000  0.05000000       0.024
   0.15000000  0.15000000  0.05000000       0.024
   0.25000000  0.15000000  0.05000000       0.048
   0.35000000  0.15000000  0.05000000       0.048
   0.45000000  0.15000000  0.05000000       0.048
   0.25000000  0.25000000  0.05000000       0.024
   0.35000000  0.25000000  0.05000000       0.048
   0.45000000  0.25000000  0.05000000       0.048
   0.35000000  0.35000000  0.05000000       0.024
   0.45000000  0.35000000  0.05000000       0.048
   0.45000000  0.45000000  0.05000000       0.024
   0.15000000  0.15000000  0.15000000       0.008
   0.25000000  0.15000000  0.15000000       0.024
   0.35000000  0.15000000  0.15000000       0.024
   0.45000000  0.15000000  0.15000000       0.024
   0.25000000  0.25000000  0.15000000       0.024
   0.35000000  0.25000000  0.15000000       0.048
   0.45000000  0.25000000  0.15000000       0.048
   0.35000000  0.35000000  0.15000000       0.024
   0.45000000  0.35000000  0.15000000       0.048
   0.45000000  0.45000000  0.15000000       0.024
   0.25000000  0.25000000  0.25000000       0.008
   0.35000000  0.25000000  0.25000000       0.024
   0.45000000  0.25000000  0.25000000       0.024
   0.35000000  0.35000000  0.25000000       0.024
   0.45000000  0.35000000  0.25000000       0.048
   0.45000000  0.45000000  0.25000000       0.024
   0.35000000  0.35000000  0.35000000       0.008
   0.45000000  0.35000000  0.35000000       0.024
   0.45000000  0.45000000  0.35000000       0.024
   0.45000000  0.45000000  0.45000000       0.008
 
 k-points in reciprocal lattice and weights: k-points                                
   0.05000000  0.05000000  0.05000000       0.008
   0.15000000  0.05000000  0.05000000       0.024
   0.25000000  0.05000000  0.05000000       0.024
   0.35000000  0.05000000  0.05000000       0.024
   0.45000000  0.05000000  0.05000000       0.024
   0.15000000  0.15000000  0.05000000       0.024
   0.25000000  0.15000000  0.05000000       0.048
   0.35000000  0.15000000  0.05000000       0.048
   0.45000000  0.15000000  0.05000000       0.048
   0.25000000  0.25000000  0.05000000       0.024
   0.35000000  0.25000000  0.05000000       0.048
   0.45000000  0.25000000  0.05000000       0.048
   0.35000000  0.35000000  0.05000000       0.024
   0.45000000  0.35000000  0.05000000       0.048
   0.45000000  0.45000000  0.05000000       0.024
   0.15000000  0.15000000  0.15000000       0.008
   0.25000000  0.15000000  0.15000000       0.024
   0.35000000  0.15000000  0.15000000       0.024
   0.45000000  0.15000000  0.15000000       0.024
   0.25000000  0.25000000  0.15000000       0.024
   0.35000000  0.25000000  0.15000000       0.048
   0.45000000  0.25000000  0.15000000       0.048
   0.35000000  0.35000000  0.15000000       0.024
   0.45000000  0.35000000  0.15000000       0.048
   0.45000000  0.45000000  0.15000000       0.024
   0.25000000  0.25000000  0.25000000       0.008
   0.35000000  0.25000000  0.25000000       0.024
   0.45000000  0.25000000  0.25000000       0.024
   0.35000000  0.35000000  0.25000000       0.024
   0.45000000  0.35000000  0.25000000       0.048
   0.45000000  0.45000000  0.25000000       0.024
   0.35000000  0.35000000  0.35000000       0.008
   0.45000000  0.35000000  0.35000000       0.024
   0.45000000  0.45000000  0.35000000       0.024
   0.45000000  0.45000000  0.45000000       0.008
 
 position of ions in fractional coordinates (direct lattice) 
   0.00000000  0.00000000  0.00000000
   0.00000000  0.50000000  0.50000000
   0.50000000  0.00000000  0.50000000
   0.50000000  0.50000000  0.00000000
   0.25000000  0.25000000  0.25000000
   0.75000000  0.75000000  0.25000000
   0.75000000  0.25000000  0.75000000
   0.25000000  0.75000000  0.75000000
 
 position of ions in cartesian coordinates  (Angst):
   0.00000000  0.00000000  0.00000000
   0.00000000  2.71550000  2.71550000
   2.71550000  0.00000000  2.71550000
   2.71550000  2.71550000  0.00000000
   1.35775000  1.35775000  1.35775000
   4.07325000  4.07325000  1.35775000
   4.07325000  1.35775000  4.07325000
   1.35775000  4.07325000  4.07325000
 


--------------------------------------------------------------------------------------------------------


 k-point  1 :   0.0500 0.0500 0.0500  plane waves:    1358
 k-point  2 :   0.1500 0.0500 0.0500  plane waves:    1345
 k-point  3 :   0.2500 0.0500 0.0500  plane waves:    1343
 k-point  4 :   0.3500 0.0500 0.0500  plane waves:    1347
 k-point  5 :   0.4500 0.0500 0.0500  plane waves:    1356
 k-point  6 :   0.1500 0.1500 0.0500  plane waves:    1346
 k-point  7 :   0.2500 0.1500 0.0500  plane waves:    1348
 k-point  8 :   0.3500 0.1500 0.0500  plane waves:    1353
 k-point  9 :   0.4500 0.1500 0.0500  plane waves:    1348
 k-point 10 :   0.2500 0.2500 0.0500  plane waves:    1346
 k-point 11 :   0.3500 0.2500 0.0500  plane waves:    1348
 k-point 12 :   0.4500 0.2500 0.0500  plane waves:    1352
 k-point 13 :   0.3500 0.3500 0.0500  plane waves:    1354
 k-point 14 :   0.4500 0.3500 0.0500  plane waves:    1346
 k-point 15 :   0.4500 0.4500 0.0500  plane waves:    1348
 k-point 16 :   0.1500 0.1500 0.1500  plane waves:    1343
 k-point 17 :   0.2500 0.1500 0.1500  plane waves:    1348
 k-point 18 :   0.3500 0.1500 0.1500  plane waves:    1354
 k-point 19 :   0.4500 0.1500 0.1500  plane waves:    1350
 k-point 20 :   0.2500 0.2500 0.1500  plane waves:    1353
 k-point 21 :   0.3500 0.2500 0.1500  plane waves:    1350
 k-point 22 :   0.4500 0.2500 0.1500  plane waves:    1350
 k-point 23 :   0.3500 0.3500 0.1500  plane waves:    1348
 k-point 24 :   0.4500 0.3500 0.1500  plane waves:    1356
 k-point 25 :   0.4500 0.4500 0.1500  plane waves:    1357
 k-point 26 :   0.2500 0.2500 0.2500  plane waves:    1346
 k-point 27 :   0.3500 0.2500 0.2500  plane waves:    1356
 k-point 28 :   0.4500 0.2500 0.2500  plane waves:    1352
 k-point 29 :   0.3500 0.3500 0.2500  plane waves:    1362
 k-point 30 :   0.4500 0.3500 0.2500  plane waves:    1359
 k-point 31 :   0.4500 0.4500 0.2500  plane waves:    1357
 k-point 32 :   0.3500 0.3500 0.3500  plane waves:    1349
 k-point 33 :   0.4500 0.3500 0.3500  plane waves:    1364
 k-point 34 :   0.4500 0.4500 0.3500  plane waves:    1367
 k-point 35 :   0.4500 0.4500 0.4500  plane waves:    1358

 maximum and minimum number of plane-waves per node :       190      158

 maximum number of plane-waves:      1367
 maximum index in each direction: 
   IXMAX=    6   IYMAX=    6   IZMAX=    6
   IXMIN=   -7   IYMIN=   -7   IZMIN=   -7

 NGX is ok and might be reduce to  28
 NGY is ok and might be reduce to  28
 NGZ is ok and might be reduce to  28

 total amount of memory used by VASP on root node    31507. kBytes
========================================================================

   base      :      30000. kBytes
   nonl-proj :        414. kBytes
   fftplans  :        243. kBytes
   grid      :        329. kBytes
   one-center:          3. kBytes
   wavefun   :        518. kBytes
 
     INWAV:  cpu time    0.0000: real time    0.0000
 Broyden mixing: mesh for mixing (old mesh)
   NGX = 13   NGY = 13   NGZ = 13
  (NGX  = 56   NGY  = 56   NGZ  = 56)
  gives a total of   2197 points

 initial charge density was supplied:
 charge density of overlapping atoms calculated
 number of electron      32.0000000 magnetization 
 keeping initial charge density in first step


--------------------------------------------------------------------------------------------------------


 Maximum index for augmentation-charges          125 (set IRDMAX)


--------------------------------------------------------------------------------------------------------


 First call to EWALD:  gamma=   0.326
 Maximum number of real-space cells 3x 3x 3
 Maximum number of reciprocal cells 3x 3x 3

 FEWALD executed in parallel
    FEWALD:  cpu time    0.0012: real time    0.0012


----------------------------------------- Iteration    1(   1)  ---------------------------------------


    POTLOK:  cpu time    0.0062: real time    0.0063
    SETDIJ:  cpu time    0.0016: real time    0.0017
     EDDAV:  cpu time    0.4699: real time    0.4761
       DOS:  cpu time    0.0007: real time    0.0007
    --------------------------------------------
      LOOP:  cpu time    0.4798: real time    0.4875

 eigenvalue-minimisations  :  1750
 total energy-change (2. order) : 0.2986227E+02  (-0.7867541E+03)
 number of electron      32.0000000 magnetization 
 augmentation part       32.0000000 magnetization 

 Free energy of the ion-electron system (eV)
  ---------------------------------------------------
  alpha Z        PSCENC =        13.44915721
  Ewald energy   TEWEN  =      -914.08579262
  -Hartree energ DENC   =       -44.03749844
  -exchange      EXHF   =         0.00000000
  -V(xc)+E(xc)   XCENC  =       -74.41614067
  PAW double counting   =       704.99039692     -564.24414232
  entropy T*S    EENTRO =        -0.01594865
  eigenvalues    EBANDS =        83.73603025
  atomic energy  EATOM  =       824.48621262
  Solvation  Ediel_sol  =         0.00000000
  ---------------------------------------------------
  free energy    TOTEN  =        29.86227430 eV

  energy without entropy =       29.87822295  energy(sigma->0) =       29.87024862


--------------------------------------------------------------------------------------------------------




----------------------------------------- Iteration    1(   2)  ---------------------------------------


     EDDAV:  cpu time    0.3053: real time    0.3061
       DOS:  cpu time    0.0006: real time    0.0006
    --------------------------------------------
      LOOP:  cpu time    0.3066: real time    0.3222

 eigenvalue-minimisations  :  2300
 total energy-change (2. order) :-0.7117331E+02  (-0.6834026E+02)
 number of electron      32.0000000 magnetization 
 augmentation part       32.0000000 magnetization 

 Free energy of the ion-electron system (eV)
  ---------------------------------------------------
  alpha Z        PSCENC =        13.44915721
  Ewald energy   TEWEN  =      -914.08579262
  -Hartree energ DENC   =       -44.03749844
  -exchange      EXHF   =         0.00000000
  -V(xc)+E(xc)   XCENC  =       -74.41614067
  PAW double counting   =       704.99039692     -564.24414232
  entropy T*S    EENTRO =        -0.00000000
  eigenvalues    EBANDS =        12.54677317
  atomic energy  EATOM  =       824.48621262
  Solvation  Ediel_sol  =         0.00000000
  ---------------------------------------------------
  free energy    TOTEN  =       -41.31103413 eV

  energy without entropy =      -41.31103413  energy(sigma->0) =      -41.31103413


--------------------------------------------------------------------------------------------------------




----------------------------------------- Iteration    1(   3)  ---------------------------------------


     EDDAV:  cpu time    0.3047: real time    0.3055
       DOS:  cpu time    0.0006: real time    0.0006
    CHARGE:  cpu time    0.0155: real time    0.0156
    MIXING:  cpu time    0.0009: real time    0.0012
    --------------------------------------------
      LOOP:  cpu time    0.3221: real time    0.3260

 eigenvalue-minimisations  :  2305
 total energy-change (2. order) :-0.2658365E+01  (-0.2642129E+01)
 number of electron      31.9999960 magnetization 
 augmentation part       -1.8733378 magnetization 

 Broyden mixing:
  rms(total) = 0.11249E+01    rms(broyden)= 0.11248E+01
  rms(prec ) = 0.14632E+01
  weight for this iteration     100.00

 Free energy of the ion-electron system (eV)
  ---------------------------------------------------
  alpha Z        PSCENC =        13.44915721
  Ewald energy   TEWEN  =      -914.08579262
  -Hartree energ DENC   =       -44.03749844
  -exchange      EXHF   =         0.00000000
  -V(xc)+E(xc)   XCENC  =       -74.41614067
  PAW double counting   =       704.99039692     -564.24414232
  entropy T*S    EENTRO =        -0.00000000
  eigenvalues    EBANDS =         9.88840854
  atomic energy  EATOM  =       824.48621262
  Solvation  Ediel_sol  =         0.00000000
  ---------------------------------------------------
  free energy    TOTEN  =       -43.96939876 eV

  energy without entropy =      -43.96939876  energy(sigma->0) =      -43.96939876


--------------------------------------------------------------------------------------------------------




----------------------------------------- Iteration    1(   4)  ---------------------------------------


    POTLOK:  cpu time    0.0052: real time    0.0061
    SETDIJ:  cpu time    0.0021: real time    0.0021
     EDDAV:  cpu time    0.3713: real time    0.3739
       DOS:  cpu time    0.0006: real time    0.0006
    CHARGE:  cpu time    0.0129: real time    0.0130
    MIXING:  cpu time    0.0008: real time    0.0009
    --------------------------------------------
      LOOP:  cpu time    0.3934: real time    0.4001

 eigenvalue-minimisations  :  2310
 total energy-change (2. order) : 0.4680041E+00  (-0.4437787E-01)
 number of electron      31.9999960 magnetization 
 augmentation part       -1.8531964 magnetization 

 Broyden mixing:
  rms(total) = 0.66391E+00    rms(broyden)= 0.66391E+00
  rms(prec ) = 0.86620E+00
  weight for this iteration     100.00

 eigenvalues of (default mixing * dielectric matrix)
  average eigenvalue GAMMA=   2.4253
  2.4253

 Free energy of the ion-electron system (eV)
  ---------------------------------------------------
  alpha Z        PSCENC =        13.44915721
  Ewald energy   TEWEN  =      -914.08579262
  -Hartree energ DENC   =       -49.95289674
  -exchange      EXHF   =         0.00000000
  -V(xc)+E(xc)   XCENC  =       -73.45344078
  PAW double counting   =      1747.28030909    -1606.98570388
  entropy T*S    EENTRO =        -0.00000000
  eigenvalues    EBANDS =        15.76076043
  atomic energy  EATOM  =       824.48621262
  Solvation  Ediel_sol  =         0.00000000
  ---------------------------------------------------
  free energy    TOTEN  =       -43.50139467 eV

  energy without entropy =      -43.50139467  energy(sigma->0) =      -43.50139467


--------------------------------------------------------------------------------------------------------




----------------------------------------- Iteration    1(   5)  ---------------------------------------


    POTLOK:  cpu time    0.0040: real time    0.0040
    SETDIJ:  cpu time    0.0020: real time    0.0020
     EDDAV:  cpu time    0.2833: real time    0.2840
       DOS:  cpu time    0.0007: real time    0.0007
    CHARGE:  cpu time    0.0128: real time    0.0129
    MIXING:  cpu time    0.0006: real time    0.0006
    --------------------------------------------
      LOOP:  cpu time    0.3038: real time    0.3072

 eigenvalue-minimisations  :  2080
 total energy-change (2. order) : 0.2284983E+00  (-0.4944921E-01)
 number of electron      31.9999961 magnetization 
 augmentation part       -1.8256589 magnetization 

 Broyden mixing:
  rms(total) = 0.38464E-01    rms(broyden)= 0.38462E-01
  rms(prec ) = 0.56859E-01
  weight for this iteration     100.00

 eigenvalues of (default mixing * dielectric matrix)
  average eigenvalue GAMMA=   1.8527
  1.1713  2.5341

 Free energy of the ion-electron system (eV)
  ---------------------------------------------------
  alpha Z        PSCENC =        13.44915721
  Ewald energy   TEWEN  =      -914.08579262
  -Hartree energ DENC   =       -59.67991787
  -exchange      EXHF   =         0.00000000
  -V(xc)+E(xc)   XCENC  =       -71.86099590
  PAW double counting   =      4215.81353795    -4076.10813333
  entropy T*S    EENTRO =        -0.00000001
  eigenvalues    EBANDS =        24.71303561
  atomic energy  EATOM  =       824.48621262
  Solvation  Ediel_sol  =         0.00000000
  ---------------------------------------------------
  free energy    TOTEN  =       -43.27289633 eV

  energy without entropy =      -43.27289633  energy(sigma->0) =      -43.27289633


--------------------------------------------------------------------------------------------------------




----------------------------------------- Iteration    1(   6)  ---------------------------------------


    POTLOK:  cpu time    0.0039: real time    0.0039
    SETDIJ:  cpu time    0.0011: real time    0.0011
     EDDAV:  cpu time    0.2965: real time    0.2973
       DOS:  cpu time    0.0007: real time    0.0007
    CHARGE:  cpu time    0.0137: real time    0.0138
    MIXING:  cpu time    0.0005: real time    0.0005
    --------------------------------------------
      LOOP:  cpu time    0.3169: real time    0.3204

 eigenvalue-minimisations  :  2255
 total energy-change (2. order) :-0.4576196E-02  (-0.1942599E-02)
 number of electron      31.9999961 magnetization 
 augmentation part       -1.8272960 magnetization 

 Broyden mixing:
  rms(total) = 0.20430E-01    rms(broyden)= 0.20430E-01
  rms(prec ) = 0.29897E-01
  weight for this iteration     100.00

 eigenvalues of (default mixing * dielectric matrix)
  average eigenvalue GAMMA=   1.9596
  2.5265  2.5265  0.8257

 Free energy of the ion-electron system (eV)
  ---------------------------------------------------
  alpha Z        PSCENC =        13.44915721
  Ewald energy   TEWEN  =      -914.08579262
  -Hartree energ DENC   =       -59.66446773
  -exchange      EXHF   =         0.00000000
  -V(xc)+E(xc)   XCENC  =       -71.83370464
  PAW double counting   =      4289.59074407    -4149.82440010
  entropy T*S    EENTRO =        -0.00000000
  eigenvalues    EBANDS =        24.60477867
  atomic energy  EATOM  =       824.48621262
  Solvation  Ediel_sol  =         0.00000000
  ---------------------------------------------------
  free energy    TOTEN  =       -43.27747253 eV

  energy without entropy =      -43.27747252  energy(sigma->0) =      -43.27747253


--------------------------------------------------------------------------------------------------------




----------------------------------------- Iteration    1(   7)  ---------------------------------------


    POTLOK:  cpu time    0.0038: real time    0.0038
    SETDIJ:  cpu time    0.0011: real time    0.0011
     EDDAV:  cpu time    0.2727: real time    0.2735
       DOS:  cpu time    0.0006: real time    0.0006
    CHARGE:  cpu time    0.0129: real time    0.0129
    MIXING:  cpu time    0.0005: real time    0.0005
    --------------------------------------------
      LOOP:  cpu time    0.2921: real time    0.2955

 eigenvalue-minimisations  :  2005
 total energy-change (2. order) :-0.1612099E-02  (-0.3032026E-03)
 number of electron      31.9999961 magnetization 
 augmentation part       -1.8295437 magnetization 

 Broyden mixing:
  rms(total) = 0.11945E-01    rms(broyden)= 0.11945E-01
  rms(prec ) = 0.13960E-01
  weight for this iteration     100.00

 eigenvalues of (default mixing * dielectric matrix)
  average eigenvalue GAMMA=   1.7728
  2.4526  2.4526  1.0930  1.0930

 Free energy of the ion-electron system (eV)
  ---------------------------------------------------
  alpha Z        PSCENC =        13.44915721
  Ewald energy   TEWEN  =      -914.08579262
  -Hartree energ DENC   =       -59.48455250
  -exchange      EXHF   =         0.00000000
  -V(xc)+E(xc)   XCENC  =       -71.83896375
  PAW double counting   =      4261.92743012    -4122.09773175
  entropy T*S    EENTRO =        -0.00000000
  eigenvalues    EBANDS =        24.36515604
  atomic energy  EATOM  =       824.48621262
  Solvation  Ediel_sol  =         0.00000000
  ---------------------------------------------------
  free energy    TOTEN  =       -43.27908463 eV

  energy without entropy =      -43.27908463  energy(sigma->0) =      -43.27908463


--------------------------------------------------------------------------------------------------------




----------------------------------------- Iteration    1(   8)  ---------------------------------------


    POTLOK:  cpu time    0.0038: real time    0.0038
    SETDIJ:  cpu time    0.0011: real time    0.0011
     EDDAV:  cpu time    0.2583: real time    0.2589
       DOS:  cpu time    0.0007: real time    0.0007
    CHARGE:  cpu time    0.0132: real time    0.0133
    MIXING:  cpu time    0.0005: real time    0.0005
    --------------------------------------------
      LOOP:  cpu time    0.2780: real time    0.2813

 eigenvalue-minimisations  :  1765
 total energy-change (2. order) :-0.1028616E-03  (-0.1546062E-04)
 number of electron      31.9999961 magnetization 
 augmentation part       -1.8292791 magnetization 

 Broyden mixing:
  rms(total) = 0.62725E-02    rms(broyden)= 0.62725E-02
  rms(prec ) = 0.68237E-02
  weight for this iteration     100.00

 eigenvalues of (default mixing * dielectric matrix)
  average eigenvalue GAMMA=   1.9405
  3.0684  2.4984  2.2363  0.9894  0.9099

 Free energy of the ion-electron system (eV)
  ---------------------------------------------------
  alpha Z        PSCENC =        13.44915721
  Ewald energy   TEWEN  =      -914.08579262
  -Hartree energ DENC   =       -59.60934886
  -exchange      EXHF   =         0.00000000
  -V(xc)+E(xc)   XCENC  =       -71.82356969
  PAW double counting   =      4242.06635732    -4102.24595569
  entropy T*S    EENTRO =        -0.00000000
  eigenvalues    EBANDS =        24.48375222
  atomic energy  EATOM  =       824.48621262
  Solvation  Ediel_sol  =         0.00000000
  ---------------------------------------------------
  free energy    TOTEN  =       -43.27918749 eV

  energy without entropy =      -43.27918749  energy(sigma->0) =      -43.27918749


--------------------------------------------------------------------------------------------------------




----------------------------------------- Iteration    1(   9)  ---------------------------------------


    POTLOK:  cpu time    0.0038: real time    0.0038
    SETDIJ:  cpu time    0.0011: real time    0.0011
     EDDAV:  cpu time    0.2388: real time    0.2395
       DOS:  cpu time    0.0006: real time    0.0006
    --------------------------------------------
      LOOP:  cpu time    0.2447: real time    0.2482

 eigenvalue-minimisations  :  1570
 total energy-change (2. order) :-0.5464286E-04  (-0.7358708E-05)
 number of electron      31.9999961 magnetization 
 augmentation part       -1.8292791 magnetization 

 Free energy of the ion-electron system (eV)
  ---------------------------------------------------
  alpha Z        PSCENC =        13.44915721
  Ewald energy   TEWEN  =      -914.08579262
  -Hartree energ DENC   =       -59.65419363
  -exchange      EXHF   =         0.00000000
  -V(xc)+E(xc)   XCENC  =       -71.81892521
  PAW double counting   =      4213.50759962    -4073.68785018
  entropy T*S    EENTRO =        -0.00000000
  eigenvalues    EBANDS =        24.52455005
  atomic energy  EATOM  =       824.48621262
  Solvation  Ediel_sol  =         0.00000000
  ---------------------------------------------------
  free energy    TOTEN  =       -43.27924213 eV

  energy without entropy =      -43.27924213  energy(sigma->0) =      -43.27924213


--------------------------------------------------------------------------------------------------------




 average (electrostatic) potential at core
  the test charge radii are     0.9892
  (the norm of the test charge is              1.0000)
       1 -83.2542       2 -83.2542       3 -83.2542       4 -83.2542       5 -83.2542
       6 -83.2542       7 -83.2542       8 -83.2542
 
 
 
 E-fermi :   6.1505     XC(G=0):  -9.4096     alpha+bet :-11.9779


 k-point     1 :       0.0500    0.0500    0.0500
  band No.  band energies     occupation 
      1      -6.0996      2.00000
      2      -2.3588      2.00000
      3      -2.3588      2.00000
      4      -2.3588      2.00000
      5      -1.5902      2.00000
      6      -1.5902      2.00000
      7      -1.5902      2.00000
      8       2.8466      2.00000
      9       2.8466      2.00000
     10       2.8466      2.00000
     11       3.0053      2.00000
     12       3.0053      2.00000
     13       3.0053      2.00000
     14       5.4781      2.00000
     15       5.7821      2.00000
     16       5.7821      2.00000
     17       6.5572      0.00000
     18       6.5572      0.00000
     19       6.5572      0.00000
     20       6.8169      0.00000
     21       6.8169      0.00000
     22       6.8169      0.00000
     23       8.4633      0.00000
     24       8.4850      0.00000
     25       8.4850      0.00000

 k-point     2 :       0.1500    0.0500    0.0500
  band No.  band energies     occupation 
      1      -6.0123      2.00000
      2      -3.0716      2.00000
      3      -2.3246      2.00000
      4      -2.3246      2.00000
      5      -1.5731      2.00000
      6      -1.5731      2.00000
      7      -0.7773      2.00000
      8       2.5276      2.00000
      9       2.5276      2.00000
     10       2.9182      2.00000
     11       2.9182      2.00000
     12       2.9325      2.00000
     13       3.0841      2.00000
     14       4.9261      2.00000
     15       5.4733      2.00000
     16       5.6075      2.00000
     17       6.5251      0.00000
     18       6.8528      0.00000
     19       6.8528      0.00000
     20       7.0839      0.00000
     21       7.3751      0.00000
     22       7.3751      0.00000
     23       8.2906      0.00000
     24       8.7405      0.00000
     25       8.8954      0.00000

 k-point     3 :       0.2500    0.0500    0.0500
  band No.  band energies     occupation 
      1      -5.8381      2.00000
      2      -3.7215      2.00000
      3      -2.2655      2.00000
      4      -2.2655      2.00000
      5      -1.5472      2.00000
      6      -1.5472      2.00000
      7       0.0674      2.00000
      8       2.1915      2.00000
      9       2.1915      2.00000
     10       2.6766      2.00000
     11       2.6766      2.00000
     12       3.1036      2.00000
     13       3.2412      2.00000
     14       4.2363      2.00000
     15       5.0326      2.00000
     16       5.1440      2.00000
     17       6.5791      0.00000
     18       7.4949      0.00000
     19       7.5123      0.00000
     20       7.5123      0.00000
     21       7.9730      0.00000
     22       8.1973      0.00000
     23       8.1973      0.00000
     24       9.3157      0.00000
     25       9.5407      0.00000

 k-point     4 :       0.3500    0.0500    0.0500
  band No.  band energies     occupation 
      1      -5.5780      2.00000
      2      -4.3017      2.00000
      3      -2.2008      2.00000
      4      -2.2008      2.00000
      5      -1.5238      2.00000
      6      -1.5238      2.00000
      7       0.9305      2.00000
      8       1.9322      2.00000
      9       1.9322      2.00000
     10       2.4289      2.00000
     11       2.4289      2.00000
     12       3.3599      2.00000
     13       3.4685      2.00000
     14       3.4735      2.00000
     15       4.5746      2.00000
     16       4.6136      2.00000
     17       6.7257      0.00000
     18       7.6092      0.00000
     19       8.0357      0.00000
     20       8.4096      0.00000
     21       8.4096      0.00000
     22       9.1756      0.00000
     23       9.1756      0.00000
     24       9.9147      0.00000
     25      10.3021      0.00000

 k-point     5 :       0.4500    0.0500    0.0500
  band No.  band energies     occupation 
      1      -5.2337      2.00000
      2      -4.8072      2.00000
      3      -2.1572      2.00000
      4      -2.1572      2.00000
      5      -1.5113      2.00000
      6      -1.5113      2.00000
      7       1.7957      2.00000
      8       1.7957      2.00000
      9       1.7964      2.00000
     10       2.2777      2.00000
     11       2.2777      2.00000
     12       2.6487      2.00000
     13       3.6997      2.00000
     14       3.7777      2.00000
     15       4.1212      2.00000
     16       4.1488      2.00000
     17       6.9564      0.00000
     18       7.2582      0.00000
     19       8.6945      0.00000
     20       9.4295      0.00000
     21       9.4336      0.00000
     22       9.4336      0.00000
     23      10.1528      0.00000
     24      10.1528      0.00000
     25      10.8616      0.00000

 k-point     6 :       0.1500    0.1500    0.0500
  band No.  band energies     occupation 
      1      -5.9255      2.00000
      2      -3.0192      2.00000
      3      -3.0192      2.00000
      4      -2.3237      2.00000
      5      -1.5404      2.00000
      6      -0.7982      2.00000
      7      -0.7982      2.00000
      8       2.1250      2.00000
      9       2.6225      2.00000
     10       2.6225      2.00000
     11       3.0127      2.00000
     12       3.0127      2.00000
     13       3.1442      2.00000
     14       4.3375      2.00000
     15       5.2050      2.00000
     16       5.7066      2.00000
     17       6.7477      0.00000
     18       6.8862      0.00000
     19       6.8862      0.00000
     20       7.5663      0.00000
     21       7.5663      0.00000
     22       8.1174      0.00000
     23       8.5459      0.00000
     24       8.6504      0.00000
     25       8.8987      0.00000

 k-point     7 :       0.2500    0.1500    0.0500
  band No.  band energies     occupation 
      1      -5.7524      2.00000
      2      -3.6577      2.00000
      3      -2.9200      2.00000
      4      -2.3384      2.00000
      5      -1.4716      2.00000
      6      -0.8496      2.00000
      7      -0.0061      2.00000
      8       1.8073      2.00000
      9       2.2753      2.00000
     10       2.8094      2.00000
     11       2.8262      2.00000
     12       3.1254      2.00000
     13       3.2051      2.00000
     14       3.6742      2.00000
     15       4.7565      2.00000
     16       5.4503      2.00000
     17       6.9817      0.00000
     18       7.0984      0.00000
     19       7.5695      0.00000
     20       7.9183      0.00000
     21       8.3499      0.00000
     22       8.3722      0.00000
     23       8.9486      0.00000
     24       9.0317      0.00000
     25       9.4207      0.00000

 k-point     8 :       0.3500    0.1500    0.0500
  band No.  band energies     occupation 
      1      -5.4942      2.00000
      2      -4.2300      2.00000
      3      -2.7859      2.00000
      4      -2.3924      2.00000
      5      -1.3639      2.00000
      6      -0.9425      2.00000
      7       0.7819      2.00000
      8       1.6291      2.00000
      9       1.9647      2.00000
     10       2.6777      2.00000
     11       2.9504      2.00000
     12       2.9882      2.00000
     13       3.0812      2.00000
     14       3.5012      2.00000
     15       4.2809      2.00000
     16       4.9525      2.00000
     17       7.1518      0.00000
     18       7.8203      0.00000
     19       8.0377      0.00000
     20       8.4103      0.00000
     21       8.4725      0.00000
     22       9.3026      0.00000
     23       9.5090      0.00000
     24      10.0509      0.00000
     25      10.1700      0.00000

 k-point     9 :       0.4500    0.1500    0.0500
  band No.  band energies     occupation 
      1      -5.1525      2.00000
      2      -4.7299      2.00000
      3      -2.6358      2.00000
      4      -2.4959      2.00000
      5      -1.2241      2.00000
      6      -1.0740      2.00000
      7       1.5479      2.00000
      8       1.6078      2.00000
      9       1.7304      2.00000
     10       2.2825      2.00000
     11       2.6536      2.00000
     12       2.7609      2.00000
     13       3.4258      2.00000
     14       3.8301      2.00000
     15       3.9048      2.00000
     16       4.4038      2.00000
     17       7.3945      0.00000
     18       7.6975      0.00000
     19       8.7694      0.00000
     20       9.0237      0.00000
     21       9.4769      0.00000
     22       9.6684      0.00000
     23       9.8547      0.00000
     24      10.4707      0.00000
     25      10.5877      0.00000

 k-point    10 :       0.2500    0.2500    0.0500
  band No.  band energies     occupation 
      1      -5.5817      2.00000
      2      -3.5335      2.00000
      3      -3.5335      2.00000
      4      -2.4785      2.00000
      5      -1.3290      2.00000
      6      -0.1552      2.00000
      7      -0.1552      2.00000
      8       1.5621      2.00000
      9       2.4412      2.00000
     10       2.4412      2.00000
     11       3.0431      2.00000
     12       3.1242      2.00000
     13       3.1242      2.00000
     14       3.4141      2.00000
     15       4.3057      2.00000
     16       5.5208      2.00000
     17       7.0621      0.00000
     18       7.6893      0.00000
     19       7.6893      0.00000
     20       8.6487      0.00000
     21       8.6487      0.00000
     22       8.7322      0.00000
     23       8.9831      0.00000
     24       9.3000      0.00000
     25       9.9916      0.00000

 k-point    11 :       0.3500    0.2500    0.0500
  band No.  band energies     occupation 
      1      -5.3273      2.00000
      2      -4.0889      2.00000
      3      -3.3569      2.00000
      4      -2.6746      2.00000
      5      -1.1305      2.00000
      6      -0.3711      2.00000
      7       0.5151      2.00000
      8       1.4805      2.00000
      9       2.0755      2.00000
     10       2.4101      2.00000
     11       2.6858      2.00000
     12       3.1110      2.00000
     13       3.4573      2.00000
     14       3.5604      2.00000
     15       3.8326      2.00000
     16       5.2170      2.00000
     17       7.4781      0.00000
     18       7.8745      0.00000
     19       8.5988      0.00000
     20       8.6966      0.00000
     21       9.0846      0.00000
     22       9.0983      0.00000
     23       9.5518      0.00000
     24       9.9417      0.00000
     25      10.4530      0.00000

 k-point    12 :       0.4500    0.2500    0.0500
  band No.  band energies     occupation 
      1      -4.9914      2.00000
      2      -4.5770      2.00000
      3      -3.1409      2.00000
      4      -2.9048      2.00000
      5      -0.8899      2.00000
      6      -0.6271      2.00000
      7       1.1581      2.00000
      8       1.5571      2.00000
      9       1.7668      2.00000
     10       1.7846      2.00000
     11       3.0046      2.00000
     12       3.1948      2.00000
     13       3.3395      2.00000
     14       3.3908      2.00000
     15       4.1024      2.00000
     16       4.6890      2.00000
     17       8.1190      0.00000
     18       8.2522      0.00000
     19       8.4083      0.00000
     20       9.2268      0.00000
     21       9.5502      0.00000
     22       9.6341      0.00000
     23       9.6581      0.00000
     24      10.2169      0.00000
     25      10.3745      0.00000

 k-point    13 :       0.3500    0.3500    0.0500
  band No.  band energies     occupation 
      1      -5.0792      2.00000
      2      -3.8836      2.00000
      3      -3.8836      2.00000
      4      -2.9953      2.00000
      5      -0.8511      2.00000
      6       0.1780      2.00000
      7       0.1780      2.00000
      8       1.4925      2.00000
      9       1.8279      2.00000
     10       2.2776      2.00000
     11       2.2776      2.00000
     12       3.3655      2.00000
     13       3.6710      2.00000
     14       3.6710      2.00000
     15       3.7972      2.00000
     16       5.1946      2.00000
     17       7.5057      0.00000
     18       8.7832      0.00000
     19       8.7832      0.00000
     20       8.8052      0.00000
     21       9.4854      0.00000
     22       9.7334      0.00000
     23       9.7335      0.00000
     24       9.7722      0.00000
     25      10.0259      0.00000

 k-point    14 :       0.4500    0.3500    0.0500
  band No.  band energies     occupation 
      1      -4.7526      2.00000
      2      -4.3520      2.00000
      3      -3.6228      2.00000
      4      -3.3200      2.00000
      5      -0.5315      2.00000
      6      -0.1822      2.00000
      7       0.7173      2.00000
      8       1.2636      2.00000
      9       1.6476      2.00000
     10       1.9188      2.00000
     11       2.5674      2.00000
     12       2.9349      2.00000
     13       3.8054      2.00000
     14       3.8880      2.00000
     15       4.2845      2.00000
     16       4.8428      2.00000
     17       7.9681      0.00000
     18       8.7692      0.00000
     19       8.9020      0.00000
     20       9.0065      0.00000
     21       9.2876      0.00000
     22       9.3183      0.00000
     23       9.8160      0.00000
     24      10.4746      0.00000
     25      10.5568      0.00000

 k-point    15 :       0.4500    0.4500    0.0500
  band No.  band energies     occupation 
      1      -4.4403      2.00000
      2      -4.0606      2.00000
      3      -4.0606      2.00000
      4      -3.7120      2.00000
      5      -0.1436      2.00000
      6       0.2753      2.00000
      7       0.2753      2.00000
      8       0.7566      2.00000
      9       1.8603      2.00000
     10       2.1745      2.00000
     11       2.1745      2.00000
     12       2.5197      2.00000
     13       4.2608      2.00000
     14       4.3728      2.00000
     15       4.3728      2.00000
     16       4.7514      2.00000
     17       8.0331      0.00000
     18       8.5000      0.00000
     19       8.5000      0.00000
     20       8.5349      0.00000
     21      10.0276      0.00000
     22      10.0276      0.00000
     23      10.1596      0.00000
     24      10.4209      0.00000
     25      11.1059      0.00000

 k-point    16 :       0.1500    0.1500    0.1500
  band No.  band energies     occupation 
      1      -5.8393      2.00000
      2      -2.9786      2.00000
      3      -2.9786      2.00000
      4      -2.9786      2.00000
      5      -0.8318      2.00000
      6      -0.8318      2.00000
      7      -0.8318      2.00000
      8       2.2643      2.00000
      9       2.2643      2.00000
     10       2.2643      2.00000
     11       3.2209      2.00000
     12       3.2209      2.00000
     13       3.2209      2.00000
     14       3.7675      2.00000
     15       5.4499      2.00000
     16       5.4499      2.00000
     17       6.8351      0.00000
     18       6.8351      0.00000
     19       6.8351      0.00000
     20       8.2521      0.00000
     21       8.2521      0.00000
     22       8.2521      0.00000
     23       8.2539      0.00000
     24       8.9659      0.00000
     25       8.9659      0.00000

 k-point    17 :       0.2500    0.1500    0.1500
  band No.  band energies     occupation 
      1      -5.6675      2.00000
      2      -3.6000      2.00000
      3      -2.9076      2.00000
      4      -2.9076      2.00000
      5      -0.8989      2.00000
      6      -0.8989      2.00000
      7      -0.1131      2.00000
      8       1.9865      2.00000
      9       1.9865      2.00000
     10       2.5454      2.00000
     11       3.1280      2.00000
     12       3.2141      2.00000
     13       3.2141      2.00000
     14       3.3727      2.00000
     15       5.0621      2.00000
     16       5.2955      2.00000
     17       7.0063      0.00000
     18       7.1938      0.00000
     19       7.1938      0.00000
     20       8.2997      0.00000
     21       8.5226      0.00000
     22       8.8786      0.00000
     23       9.1464      0.00000
     24       9.1464      0.00000
     25       9.4728      0.00000

 k-point    18 :       0.3500    0.1500    0.1500
  band No.  band energies     occupation 
      1      -5.4114      2.00000
      2      -4.1619      2.00000
      3      -2.8282      2.00000
      4      -2.8282      2.00000
      5      -0.9831      2.00000
      6      -0.9831      2.00000
      7       0.5791      2.00000
      8       1.8278      2.00000
      9       1.8278      2.00000
     10       2.4923      2.00000
     11       2.9688      2.00000
     12       3.0787      2.00000
     13       3.0787      2.00000
     14       3.5974      2.00000
     15       4.6419      2.00000
     16       4.7855      2.00000
     17       7.2503      0.00000
     18       7.9108      0.00000
     19       7.9108      0.00000
     20       8.2056      0.00000
     21       8.9312      0.00000
     22       9.2170      0.00000
     23      10.0679      0.00000
     24      10.1412      0.00000
     25      10.1412      0.00000

 k-point    19 :       0.4500    0.1500    0.1500
  band No.  band energies     occupation 
      1      -5.0729      2.00000
      2      -4.6549      2.00000
      3      -2.7737      2.00000
      4      -2.7737      2.00000
      5      -1.0451      2.00000
      6      -1.0451      2.00000
      7       1.2351      2.00000
      8       1.7673      2.00000
      9       1.7673      2.00000
     10       1.8660      2.00000
     11       2.9640      2.00000
     12       2.9640      2.00000
     13       3.5180      2.00000
     14       3.8900      2.00000
     15       4.1486      2.00000
     16       4.2431      2.00000
     17       7.5525      0.00000
     18       7.8882      0.00000
     19       8.8512      0.00000
     20       8.8512      0.00000
     21       9.4658      0.00000
     22       9.8248      0.00000
     23       9.9503      0.00000
     24       9.9503      0.00000
     25      10.3693      0.00000

 k-point    20 :       0.2500    0.2500    0.1500
  band No.  band energies     occupation 
      1      -5.4984      2.00000
      2      -3.4903      2.00000
      3      -3.4903      2.00000
      4      -2.9014      2.00000
      5      -0.9692      2.00000
      6      -0.3100      2.00000
      7      -0.3100      2.00000
      8       1.8189      2.00000
      9       2.3337      2.00000
     10       2.3337      2.00000
     11       2.5099      2.00000
     12       3.3947      2.00000
     13       3.3947      2.00000
     14       3.4854      2.00000
     15       4.7690      2.00000
     16       5.3541      2.00000
     17       7.1650      0.00000
     18       7.3792      0.00000
     19       7.3792      0.00000
     20       8.2043      0.00000
     21       9.1135      0.00000
     22       9.3805      0.00000
     23       9.3805      0.00000
     24       9.4445      0.00000
     25      10.0932      0.00000

 k-point    21 :       0.3500    0.2500    0.1500
  band No.  band energies     occupation 
      1      -5.2468      2.00000
      2      -4.0291      2.00000
      3      -3.3414      2.00000
      4      -2.9338      2.00000
      5      -1.0033      2.00000
      6      -0.5531      2.00000
      7       0.2489      2.00000
      8       1.7950      2.00000
      9       1.9078      2.00000
     10       2.1746      2.00000
     11       2.8106      2.00000
     12       3.3487      2.00000
     13       3.5368      2.00000
     14       3.6770      2.00000
     15       4.3269      2.00000
     16       5.0828      2.00000
     17       7.5744      0.00000
     18       7.6421      0.00000
     19       8.0863      0.00000
     20       8.3577      0.00000
     21       9.0934      0.00000
     22       9.7379      0.00000
     23       9.8477      0.00000
     24      10.2386      0.00000
     25      10.6207      0.00000

 k-point    22 :       0.4500    0.2500    0.1500
  band No.  band energies     occupation 
      1      -4.9150      2.00000
      2      -4.5071      2.00000
      3      -3.1763      2.00000
      4      -3.0289      2.00000
      5      -0.9454      2.00000
      6      -0.7835      2.00000
      7       0.7896      2.00000
      8       1.3363      2.00000
      9       1.8807      2.00000
     10       2.0232      2.00000
     11       3.3412      2.00000
     12       3.3592      2.00000
     13       3.4489      2.00000
     14       3.8515      2.00000
     15       4.0775      2.00000
     16       4.5839      2.00000
     17       7.9564      0.00000
     18       8.2634      0.00000
     19       8.3363      0.00000
     20       9.0099      0.00000
     21       9.3240      0.00000
     22       9.4517      0.00000
     23      10.0851      0.00000
     24      10.0991      0.00000
     25      10.2486      0.00000

 k-point    23 :       0.3500    0.3500    0.1500
  band No.  band energies     occupation 
      1      -5.0024      2.00000
      2      -3.8392      2.00000
      3      -3.8392      2.00000
      4      -3.1159      2.00000
      5      -0.9341      2.00000
      6      -0.1217      2.00000
      7      -0.1217      2.00000
      8       1.3397      2.00000
      9       1.8878      2.00000
     10       2.5893      2.00000
     11       2.5893      2.00000
     12       3.7674      2.00000
     13       3.7674      2.00000
     14       3.8579      2.00000
     15       3.8958      2.00000
     16       5.1230      2.00000
     17       7.5985      0.00000
     18       8.3302      0.00000
     19       8.3302      0.00000
     20       8.4063      0.00000
     21       9.3820      0.00000
     22       9.6249      0.00000
     23       9.7924      0.00000
     24       9.7924      0.00000
     25      10.7353      0.00000

 k-point    24 :       0.4500    0.3500    0.1500
  band No.  band energies     occupation 
      1      -4.6820      2.00000
      2      -4.2912      2.00000
      3      -3.6062      2.00000
      4      -3.3534      2.00000
      5      -0.7510      2.00000
      6      -0.4694      2.00000
      7       0.3273      2.00000
      8       0.8117      2.00000
      9       2.0776      2.00000
     10       2.3272      2.00000
     11       3.0181      2.00000
     12       3.4534      2.00000
     13       3.8805      2.00000
     14       3.9498      2.00000
     15       4.2922      2.00000
     16       4.8048      2.00000
     17       8.0435      0.00000
     18       8.5863      0.00000
     19       8.5879      0.00000
     20       8.8165      0.00000
     21       9.2150      0.00000
     22       9.2387      0.00000
     23       9.3025      0.00000
     24      10.1469      0.00000
     25      10.2691      0.00000

 k-point    25 :       0.4500    0.4500    0.1500
  band No.  band energies     occupation 
      1      -4.3793      2.00000
      2      -4.0157      2.00000
      3      -4.0157      2.00000
      4      -3.6952      2.00000
      5      -0.4650      2.00000
      6      -0.0998      2.00000
      7      -0.0998      2.00000
      8       0.3283      2.00000
      9       2.3467      2.00000
     10       2.6700      2.00000
     11       2.6700      2.00000
     12       3.0497      2.00000
     13       4.3003      2.00000
     14       4.3997      2.00000
     15       4.3997      2.00000
     16       4.7499      2.00000
     17       8.0843      0.00000
     18       8.4486      0.00000
     19       8.4994      0.00000
     20       8.4994      0.00000
     21       9.5206      0.00000
     22       9.5206      0.00000
     23       9.8277      0.00000
     24       9.8425      0.00000
     25      10.4561      0.00000

 k-point    26 :       0.2500    0.2500    0.2500
  band No.  band energies     occupation 
      1      -5.3328      2.00000
      2      -3.4144      2.00000
      3      -3.4144      2.00000
      4      -3.4144      2.00000
      5      -0.5529      2.00000
      6      -0.5529      2.00000
      7      -0.5529      2.00000
      8       1.9045      2.00000
      9       2.2972      2.00000
     10       2.2972      2.00000
     11       2.2972      2.00000
     12       3.6259      2.00000
     13       3.6259      2.00000
     14       3.6259      2.00000
     15       5.0734      2.00000
     16       5.0734      2.00000
     17       7.3653      0.00000
     18       7.3653      0.00000
     19       7.3653      0.00000
     20       7.8698      0.00000
     21       9.3528      0.00000
     22       9.3528      0.00000
     23      10.3006      0.00000
     24      10.3006      0.00000
     25      10.3006      0.00000

 k-point    27 :       0.3500    0.2500    0.2500
  band No.  band energies     occupation 
      1      -5.0870      2.00000
      2      -3.9153      2.00000
      3      -3.3294      2.00000
      4      -3.3294      2.00000
      5      -0.7905      2.00000
      6      -0.7905      2.00000
      7      -0.1320      2.00000
      8       1.3251      2.00000
      9       2.3298      2.00000
     10       2.3298      2.00000
     11       2.9301      2.00000
     12       3.6979      2.00000
     13       3.6979      2.00000
     14       3.8317      2.00000
     15       4.7411      2.00000
     16       4.8989      2.00000
     17       7.6444      0.00000
     18       7.7599      0.00000
     19       7.7599      0.00000
     20       7.9750      0.00000
     21       9.1638      0.00000
     22       9.6777      0.00000
     23      10.4912      0.00000
     24      10.4934      0.00000
     25      10.6026      0.00000

 k-point    28 :       0.4500    0.2500    0.2500
  band No.  band energies     occupation 
      1      -4.7644      2.00000
      2      -4.3707      2.00000
      3      -3.2708      2.00000
      4      -3.2708      2.00000
      5      -0.9371      2.00000
      6      -0.9371      2.00000
      7       0.3103      2.00000
      8       0.7931      2.00000
      9       2.3742      2.00000
     10       2.3742      2.00000
     11       3.6406      2.00000
     12       3.6787      2.00000
     13       3.6787      2.00000
     14       4.0956      2.00000
     15       4.3417      2.00000
     16       4.4050      2.00000
     17       7.9586      0.00000
     18       8.1574      0.00000
     19       8.4922      0.00000
     20       8.4922      0.00000
     21       9.2301      0.00000
     22       9.4425      0.00000
     23       9.4425      0.00000
     24       9.8415      0.00000
     25      10.0855      0.00000

 k-point    29 :       0.3500    0.3500    0.2500
  band No.  band energies     occupation 
      1      -4.8510      2.00000
      2      -3.7613      2.00000
      3      -3.7613      2.00000
      4      -3.3543      2.00000
      5      -0.9533      2.00000
      6      -0.5068      2.00000
      7      -0.5068      2.00000
      8       0.7718      2.00000
      9       2.5179      2.00000
     10       2.9649      2.00000
     11       2.9649      2.00000
     12       3.9473      2.00000
     13       3.9473      2.00000
     14       3.9754      2.00000
     15       4.4786      2.00000
     16       4.9848      2.00000
     17       7.7688      0.00000
     18       7.8708      0.00000
     19       8.0073      0.00000
     20       8.0073      0.00000
     21       9.3027      0.00000
     22       9.4991      0.00000
     23       9.8280      0.00000
     24       9.8280      0.00000
     25      10.4904      0.00000

 k-point    30 :       0.4500    0.3500    0.2500
  band No.  band energies     occupation 
      1      -4.5442      2.00000
      2      -4.1758      2.00000
      3      -3.5918      2.00000
      4      -3.4441      2.00000
      5      -0.9619      2.00000
      6      -0.8016      2.00000
      7      -0.1514      2.00000
      8       0.2763      2.00000
      9       2.7171      2.00000
     10       2.8851      2.00000
     11       3.5802      2.00000
     12       4.0324      2.00000
     13       4.0718      2.00000
     14       4.0814      2.00000
     15       4.3004      2.00000
     16       4.7207      2.00000
     17       8.1105      0.00000
     18       8.1684      0.00000
     19       8.2199      0.00000
     20       8.6172      0.00000
     21       9.0015      0.00000
     22       9.1556      0.00000
     23       9.2795      0.00000
     24       9.6128      0.00000
     25       9.7735      0.00000

 k-point    31 :       0.4500    0.4500    0.2500
  band No.  band energies     occupation 
      1      -4.2633      2.00000
      2      -3.9370      2.00000
      3      -3.9370      2.00000
      4      -3.6800      2.00000
      5      -0.8227      2.00000
      6      -0.5412      2.00000
      7      -0.5412      2.00000
      8      -0.1756      2.00000
      9       3.0390      2.00000
     10       3.3378      2.00000
     11       3.3378      2.00000
     12       3.7322      2.00000
     13       4.3727      2.00000
     14       4.4461      2.00000
     15       4.4461      2.00000
     16       4.7395      2.00000
     17       8.1346      0.00000
     18       8.1413      0.00000
     19       8.3576      0.00000
     20       8.3576      0.00000
     21       9.1373      0.00000
     22       9.1373      0.00000
     23       9.4188      0.00000
     24       9.5017      0.00000
     25       9.6924      0.00000

 k-point    32 :       0.3500    0.3500    0.3500
  band No.  band energies     occupation 
      1      -4.6298      2.00000
      2      -3.6737      2.00000
      3      -3.6737      2.00000
      4      -3.6737      2.00000
      5      -0.8342      2.00000
      6      -0.8342      2.00000
      7      -0.8342      2.00000
      8       0.2418      2.00000
      9       3.2499      2.00000
     10       3.2499      2.00000
     11       3.2499      2.00000
     12       4.1430      2.00000
     13       4.1430      2.00000
     14       4.1430      2.00000
     15       4.7939      2.00000
     16       4.7939      2.00000
     17       7.5614      0.00000
     18       7.9696      0.00000
     19       7.9696      0.00000
     20       7.9696      0.00000
     21       9.3354      0.00000
     22       9.3354      0.00000
     23       9.6965      0.00000
     24       9.6965      0.00000
     25       9.6965      0.00000

 k-point    33 :       0.4500    0.3500    0.3500
  band No.  band energies     occupation 
      1      -4.3473      2.00000
      2      -4.0198      2.00000
      3      -3.6137      2.00000
      4      -3.6137      2.00000
      5      -1.0225      2.00000
      6      -1.0225      2.00000
      7      -0.5814      2.00000
      8      -0.2160      2.00000
      9       3.4007      2.00000
     10       3.4007      2.00000
     11       3.9827      2.00000
     12       4.2541      2.00000
     13       4.2541      2.00000
     14       4.3478      2.00000
     15       4.5730      2.00000
     16       4.5813      2.00000
     17       7.7211      0.00000
     18       8.0191      0.00000
     19       8.2218      0.00000
     20       8.2218      0.00000
     21       9.1320      0.00000
     22       9.1320      0.00000
     23       9.1460      0.00000
     24       9.1639      0.00000
     25       9.5107      0.00000

 k-point    34 :       0.4500    0.4500    0.3500
  band No.  band energies     occupation 
      1      -4.1067      2.00000
      2      -3.8488      2.00000
      3      -3.8488      2.00000
      4      -3.7010      2.00000
      5      -1.0588      2.00000
      6      -0.9003      2.00000
      7      -0.9003      2.00000
      8      -0.6198      2.00000
      9       3.7695      2.00000
     10       3.9834      2.00000
     11       3.9834      2.00000
     12       4.3539      2.00000
     13       4.4671      2.00000
     14       4.4993      2.00000
     15       4.4993      2.00000
     16       4.7093      2.00000
     17       7.6635      0.00000
[...]
     20       8.1639      0.00000
     21       9.1890      0.00000
     22       9.4293      0.00000
     23       9.5845      0.00000
     24       9.5845      0.00000
     25      10.5193      0.00000

 k-point    24 :       0.4500    0.3500    0.1500
  band No.  band energies     occupation 
      1      -4.7629      2.00000
      2      -4.3790      2.00000
      3      -3.7075      2.00000
      4      -3.4605      2.00000
      5      -0.8735      2.00000
      6      -0.5966      2.00000
      7       0.1911      2.00000
      8       0.6724      2.00000
      9       1.9582      2.00000
     10       2.2020      2.00000
     11       2.8799      2.00000
     12       3.3086      2.00000
     13       3.7345      2.00000
     14       3.8011      2.00000
     15       4.1366      2.00000
     16       4.6386      2.00000
     17       7.8633      0.00000
     18       8.3519      0.00000
     19       8.3861      0.00000
     20       8.6147      0.00000
     21       9.0288      0.00000
     22       9.0494      0.00000
     23       9.0994      0.00000
     24       9.9404      0.00000
     25      10.0579      0.00000

 k-point    25 :       0.4500    0.4500    0.1500
  band No.  band energies     occupation 
      1      -4.4658      2.00000
      2      -4.1091      2.00000
      3      -4.1091      2.00000
      4      -3.7952      2.00000
      5      -0.5892      2.00000
      6      -0.2288      2.00000
      7      -0.2288      2.00000
      8       0.1953      2.00000
      9       2.2211      2.00000
     10       2.5381      2.00000
     11       2.5381      2.00000
     12       2.9113      2.00000
     13       4.1439      2.00000
     14       4.2419      2.00000
     15       4.2419      2.00000
     16       4.5849      2.00000
     17       7.8966      0.00000
     18       8.2289      0.00000
     19       8.2928      0.00000
     20       8.2928      0.00000
     21       9.3261      0.00000
     22       9.3261      0.00000
     23       9.6223      0.00000
     24       9.6481      0.00000
     25      10.2270      0.00000

 k-point    26 :       0.2500    0.2500    0.2500
  band No.  band energies     occupation 
      1      -5.4027      2.00000
      2      -3.5181      2.00000
      3      -3.5181      2.00000
      4      -3.5181      2.00000
      5      -0.6852      2.00000
      6      -0.6852      2.00000
      7      -0.6852      2.00000
      8       1.7568      2.00000
      9       2.1758      2.00000
     10       2.1758      2.00000
     11       2.1758      2.00000
     12       3.4823      2.00000
     13       3.4823      2.00000
     14       3.4823      2.00000
     15       4.9048      2.00000
     16       4.9048      2.00000
     17       7.2031      0.00000
     18       7.2031      0.00000
     19       7.2031      0.00000
     20       7.6266      0.00000
     21       9.1576      0.00000
     22       9.1576      0.00000
     23      10.1064      0.00000
     24      10.1064      0.00000
     25      10.1064      0.00000

 k-point    27 :       0.3500    0.2500    0.2500
  band No.  band energies     occupation 
      1      -5.1611      2.00000
      2      -4.0098      2.00000
      3      -3.4365      2.00000
      4      -3.4365      2.00000
      5      -0.9127      2.00000
      6      -0.9127      2.00000
      7      -0.2639      2.00000
      8       1.1844      2.00000
      9       2.2042      2.00000
     10       2.2042      2.00000
     11       2.7917      2.00000
     12       3.5543      2.00000
     13       3.5543      2.00000
     14       3.6847      2.00000
     15       4.5787      2.00000
     16       4.7287      2.00000
     17       7.4737      0.00000
     18       7.5884      0.00000
     19       7.5884      0.00000
     20       7.7339      0.00000
     21       8.9740      0.00000
     22       9.4816      0.00000
     23      10.2775      0.00000
     24      10.2775      0.00000
     25      10.3993      0.00000

 k-point    28 :       0.4500    0.2500    0.2500
  band No.  band energies     occupation 
      1      -4.8440      2.00000
      2      -4.4571      2.00000
      3      -3.3806      2.00000
      4      -3.3806      2.00000
      5      -1.0531      2.00000
      6      -1.0531      2.00000
      7       0.1776      2.00000
      8       0.6574      2.00000
      9       2.2453      2.00000
     10       2.2453      2.00000
     11       3.4867      2.00000
     12       3.5374      2.00000
     13       3.5374      2.00000
     14       3.9443      2.00000
     15       4.1764      2.00000
     16       4.2486      2.00000
     17       7.7731      0.00000
     18       7.9411      0.00000
     19       8.3042      0.00000
     20       8.3042      0.00000
     21       9.0215      0.00000
     22       9.2431      0.00000
     23       9.2431      0.00000
     24       9.6057      0.00000
     25       9.8869      0.00000

 k-point    29 :       0.3500    0.3500    0.2500
  band No.  band energies     occupation 
      1      -4.9293      2.00000
      2      -3.8600      2.00000
      3      -3.8600      2.00000
      4      -3.4628      2.00000
      5      -1.0662      2.00000
      6      -0.6276      2.00000
      7      -0.6276      2.00000
      8       0.6393      2.00000
      9       2.3864      2.00000
     10       2.8235      2.00000
     11       2.8235      2.00000
     12       3.7989      2.00000
     13       3.7989      2.00000
     14       3.8252      2.00000
     15       4.3175      2.00000
     16       4.8155      2.00000
     17       7.5931      0.00000
     18       7.6272      0.00000
     19       7.8249      0.00000
     20       7.8249      0.00000
     21       9.1171      0.00000
     22       9.3108      0.00000
     23       9.6125      0.00000
     24       9.6125      0.00000
     25      10.2547      0.00000

 k-point    30 :       0.4500    0.3500    0.2500
  band No.  band energies     occupation 
      1      -4.6281      2.00000
      2      -4.2665      2.00000
      3      -3.6952      2.00000
      4      -3.5514      2.00000
      5      -1.0716      2.00000
      6      -0.9145      2.00000
      7      -0.2737      2.00000
      8       0.1499      2.00000
      9       2.5804      2.00000
     10       2.7446      2.00000
     11       3.4281      2.00000
     12       3.8830      2.00000
     13       3.9206      2.00000
     14       3.9243      2.00000
     15       4.1441      2.00000
     16       4.5552      2.00000
     17       7.8715      0.00000
     18       7.9774      0.00000
     19       8.0121      0.00000
     20       8.3986      0.00000
     21       8.8274      0.00000
     22       8.9743      0.00000
     23       9.0780      0.00000
     24       9.4095      0.00000
     25       9.5825      0.00000

 k-point    31 :       0.4500    0.4500    0.2500
  band No.  band energies     occupation 
      1      -4.3528      2.00000
      2      -4.0333      2.00000
      3      -4.0333      2.00000
      4      -3.7823      2.00000
      5      -0.9326      2.00000
      6      -0.6558      2.00000
      7      -0.6558      2.00000
      8      -0.2949      2.00000
      9       2.8967      2.00000
     10       3.1904      2.00000
     11       3.1904      2.00000
     12       3.5799      2.00000
     13       4.2146      2.00000
     14       4.2867      2.00000
     15       4.2867      2.00000
     16       4.5741      2.00000
     17       7.9030      0.00000
     18       7.9312      0.00000
     19       8.1275      0.00000
     20       8.1275      0.00000
     21       8.9627      0.00000
     22       8.9627      0.00000
     23       9.2353      0.00000
     24       9.3188      0.00000
     25       9.4808      0.00000

 k-point    32 :       0.3500    0.3500    0.3500
  band No.  band energies     occupation 
      1      -4.7124      2.00000
      2      -3.7760      2.00000
      3      -3.7760      2.00000
      4      -3.7760      2.00000
      5      -0.9440      2.00000
      6      -0.9440      2.00000
      7      -0.9440      2.00000
      8       0.1184      2.00000
      9       3.1023      2.00000
     10       3.1023      2.00000
     11       3.1023      2.00000
     12       3.9897      2.00000
     13       3.9897      2.00000
     14       3.9897      2.00000
     15       4.6281      2.00000
     16       4.6281      2.00000
     17       7.3174      0.00000
     18       7.7781      0.00000
     19       7.7781      0.00000
     20       7.7781      0.00000
     21       9.1533      0.00000
     22       9.1533      0.00000
     23       9.4759      0.00000
     24       9.4759      0.00000
     25       9.4759      0.00000

 k-point    33 :       0.4500    0.3500    0.3500
  band No.  band energies     occupation 
      1      -4.4356      2.00000
      2      -4.1147      2.00000
      3      -3.7185      2.00000
      4      -3.7185      2.00000
      5      -1.1261      2.00000
      6      -1.1261      2.00000
      7      -0.6930      2.00000
      8      -0.3324      2.00000
      9       3.2501      2.00000
     10       3.2501      2.00000
     11       3.8227      2.00000
     12       4.0990      2.00000
     13       4.0990      2.00000
     14       4.1906      2.00000
     15       4.4115      2.00000
     16       4.4150      2.00000
     17       7.4785      0.00000
     18       7.7943      0.00000
     19       8.0033      0.00000
     20       8.0033      0.00000
     21       8.9489      0.00000
     22       8.9489      0.00000
     23       8.9697      0.00000
     24       8.9746      0.00000
     25       9.3272      0.00000

 k-point    34 :       0.4500    0.4500    0.3500
  band No.  band energies     occupation 
      1      -4.2004      2.00000
      2      -3.9485      2.00000
      3      -3.9485      2.00000
      4      -3.8046      2.00000
      5      -1.1596      2.00000
      6      -1.0043      2.00000
      7      -1.0043      2.00000
      8      -0.7285      2.00000
      9       3.6141      2.00000
     10       3.8249      2.00000
     11       3.8249      2.00000
     12       4.1926      2.00000
     13       4.3067      2.00000
     14       4.3383      2.00000
     15       4.3383      2.00000
     16       4.5439      2.00000
     17       7.4199      0.00000
     18       7.7215      0.00000
     19       7.7215      0.00000
     20       7.7728      0.00000
     21       8.9102      0.00000
     22       8.9102      0.00000
     23       9.0252      0.00000
     24       9.0975      0.00000
     25       9.1054      0.00000

 k-point    35 :       0.4500    0.4500    0.4500
  band No.  band energies     occupation 
      1      -4.0337      2.00000
      2      -3.8902      2.00000
      3      -3.8902      2.00000
      4      -3.8902      2.00000
      5      -1.2002      2.00000
      6      -1.2002      2.00000
      7      -1.2002      2.00000
      8      -1.0455      2.00000
      9       4.2295      2.00000
     10       4.2295      2.00000
     11       4.2295      2.00000
     12       4.4031      2.00000
     13       4.4031      2.00000
     14       4.4031      2.00000
     15       4.4865      2.00000
     16       4.4865      2.00000
     17       7.1552      0.00000
     18       7.3686      0.00000
     19       7.3686      0.00000
     20       7.3686      0.00000
     21       8.9659      0.00000
     22       8.9659      0.00000
     23       8.9659      0.00000
     24       9.0387      0.00000
     25       9.0387      0.00000


--------------------------------------------------------------------------------------------------------


 soft charge-density along one line, spin component           1
         0         1         2         3         4         5         6         7         8         9
 total charge-density along one line
 
 pseudopotential strength for first ion, spin component:           1
 18.436  25.722  -0.000   0.000  -0.000  -0.000   0.000  -0.000
 25.722  35.891  -0.000   0.000  -0.000  -0.000   0.000  -0.000
 -0.000  -0.000   4.181   0.000   0.000   7.791   0.000   0.000
  0.000   0.000   0.000   4.181  -0.000   0.000   7.791  -0.000
 -0.000  -0.000   0.000  -0.000   4.181   0.000  -0.000   7.791
 -0.000  -0.000   7.791   0.000   0.000  14.529   0.000   0.000
  0.000   0.000   0.000   7.791  -0.000   0.000  14.529  -0.000
 -0.000  -0.000   0.000  -0.000   7.791   0.000  -0.000  14.529
 total augmentation occupancy for first ion, spin component:           1
  6.055  -2.342  -0.000  -0.000   0.000  -0.000   0.000  -0.000
 -2.342   1.014   0.000   0.000   0.000   0.000  -0.000  -0.000
 -0.000  -0.000   3.399   0.000   0.000  -0.840  -0.000  -0.000
  0.000   0.000   0.000   3.399   0.000  -0.000  -0.840  -0.000
  0.000   0.000  -0.000  -0.000   3.399  -0.000  -0.000  -0.840
  0.000   0.000  -0.840  -0.000  -0.000   0.215   0.000   0.000
 -0.000  -0.000  -0.000  -0.840  -0.000   0.000   0.215   0.000
  0.000  -0.000  -0.000  -0.000  -0.840   0.000   0.000   0.215


------------------------ aborting loop because EDIFF is reached ----------------------------------------


    CHARGE:  cpu time    0.0127: real time    0.0128
    FORLOC:  cpu time    0.0003: real time    0.0003
    FORNL :  cpu time    0.0222: real time    0.0223
    STRESS:  cpu time    0.0464: real time    0.0466
    FORCOR:  cpu time    0.0038: real time    0.0038
    FORHAR:  cpu time    0.0010: real time    0.0010
    MIXING:  cpu time    0.0004: real time    0.0004
    OFIELD:  cpu time    0.0000: real time    0.0000

  FORCE on cell =-STRESS in cart. coord.  units (eV):
  Direction    XX          YY          ZZ          XY          YZ          ZX
  --------------------------------------------------------------------------------------
  Alpha Z    13.20826    13.20826    13.20826
  Ewald    -302.86557  -302.86557  -302.86557    -0.00000    -0.00000    -0.00000
  Hartree    20.16762    20.16762    20.16762    -0.00000    -0.00000    -0.00000
  E(xc)    -101.14069  -101.14069  -101.14069    -0.00000    -0.00000    -0.00000
  Local    -118.46558  -118.46558  -118.46558     0.00000    -0.00000     0.00000
  n-local   310.59175   314.03010   307.45743    -2.95759    -2.44934    -1.67756
  augment   -46.41572   -46.41572   -46.41572     0.00000    -0.00000     0.00000
  Kinetic   217.67238   229.38828   227.48467    -3.74660    -5.65624    -2.76003
  Fock        0.00000     0.00000     0.00000     0.00000     0.00000     0.00000
  -------------------------------------------------------------------------------------
  Total       0.02986     0.02986     0.02986     0.00000     0.00000    -0.00000
  in kB       0.29329     0.29329     0.29329     0.00000     0.00000    -0.00000
  external pressure =        0.29 kB  Pullay stress =        0.00 kB


 VOLUME and BASIS-vectors are now :
 -----------------------------------------------------------------------------
  energy-cutoff  :      240.00
  volume of cell :      163.11
      direct lattice vectors                 reciprocal lattice vectors
     5.463819491  0.000000000  0.000000000     0.183022152 -0.000000000 -0.000000000
     0.000000000  5.463819491 -0.000000000    -0.000000000  0.183022152 -0.000000000
     0.000000000  0.000000000  5.463819491    -0.000000000  0.000000000  0.183022152

  length of vectors
     5.463819491  5.463819491  5.463819491     0.183022152  0.183022152  0.183022152


 FORCES acting on ions
    electron-ion (+dipol)            ewald-force                    non-local-force                 convergence-correction
 -----------------------------------------------------------------------------------------------
   -.444E-13 -.319E-14 -.363E-15   -.355E-14 0.355E-14 0.711E-14   -.330E-16 0.360E-16 -.356E-16   -.304E-14 0.419E-15 -.251E-15
   -.447E-13 -.133E-13 -.194E-13   -.355E-14 0.355E-14 0.355E-14   0.251E-16 0.325E-16 -.382E-16   -.325E-14 -.395E-16 -.208E-14
   -.632E-13 -.151E-14 0.341E-12   -.355E-14 0.355E-14 0.355E-14   0.260E-17 0.152E-16 -.347E-17   0.352E-14 0.277E-15 -.230E-14
   -.605E-13 0.129E-12 0.177E-12   -.355E-14 0.355E-14 0.711E-14   -.694E-17 -.998E-17 -.781E-17   0.363E-14 -.355E-15 -.362E-15
   0.440E-13 0.118E-12 -.167E-13   0.259E-14 -.520E-14 -.464E-14   0.304E-16 0.872E-18 -.607E-17   0.615E-15 -.136E-14 -.958E-14
   0.363E-13 -.315E-12 0.385E-12   0.841E-14 -.459E-14 -.464E-14   0.165E-16 -.113E-16 0.425E-16   -.301E-14 -.101E-14 -.929E-14
   0.300E-13 -.103E-12 0.142E-12   0.647E-14 -.253E-14 -.255E-14   -.477E-16 -.121E-16 0.347E-16   -.299E-14 -.977E-15 0.499E-14
   0.399E-13 0.875E-13 -.153E-13   0.388E-14 -.193E-14 -.254E-14   0.781E-17 -.295E-16 0.694E-17   0.399E-15 -.107E-14 0.479E-14
 -----------------------------------------------------------------------------------------------
   -.625E-13 -.102E-12 0.993E-12   0.714E-14 -.477E-16 0.694E-14   -.520E-17 0.217E-16 -.694E-17   -.412E-14 -.411E-14 -.141E-13
 
 
 POSITION                                       TOTAL-FORCE (eV/Angst)
 -----------------------------------------------------------------------------------
      0.00000      0.00000      0.00000         0.000000     -0.000000     -0.000000
      0.00000      2.73191      2.73191         0.000000      0.000000      0.000000
      2.73191      0.00000      2.73191         0.000000      0.000000     -0.000000
      2.73191      2.73191     -0.00000         0.000000     -0.000000      0.000000
      1.36595      1.36595      1.36595         0.000000     -0.000000     -0.000000
      4.09786      4.09786      1.36595        -0.000000     -0.000000     -0.000000
      4.09786      1.36595      4.09786        -0.000000     -0.000000      0.000000
      1.36595      4.09786      4.09786        -0.000000     -0.000000      0.000000
 -----------------------------------------------------------------------------------
    total drift:                               -0.000000     -0.000000      0.000000


--------------------------------------------------------------------------------------------------------



  FREE ENERGIE OF THE ION-ELECTRON SYSTEM (eV)
  ---------------------------------------------------
  free  energy   TOTEN  =       -43.29529145 eV

  energy  without entropy=      -43.29529145  energy(sigma->0) =      -43.29529145
 
 d Force = 0.0000000E+00[ 0.000E+00, 0.000E+00]  d Energy =-0.7454098E-04 0.745E-04
 d Force = 0.0000000E+00[ 0.000E+00, 0.000E+00]  d Ewald  = 0.2707829E+00-0.271E+00


--------------------------------------------------------------------------------------------------------


    POTLOK:  cpu time    0.0052: real time    0.0052


--------------------------------------------------------------------------------------------------------




--------------------------------------------------------------------------------------------------------


  
 reached required accuracy - stopping structural energy minimisation
 writing wavefunctions
     LOOP+:  cpu time    1.0046: real time    1.1110
    4ORBIT:  cpu time    0.0000: real time    0.0000

 total amount of memory used by VASP on root node    31507. kBytes
========================================================================

   base      :      30000. kBytes
   nonl-proj :        414. kBytes
   fftplans  :        243. kBytes
   grid      :        329. kBytes
   one-center:          3. kBytes
   wavefun   :        518. kBytes
 
  
  
 General timing and accounting informations for this job:
 ========================================================
  
                  Total CPU time used (sec):        9.754
                            User time (sec):        9.294
                          System time (sec):        0.460
                         Elapsed time (sec):       10.641
  
                   Maximum memory used (kb):      130992.
                   Average memory used (kb):           0.
  
                          Minor page faults:        22523
                          Major page faults:            0
                 Voluntary context switches:         1885
