<?xml version="1.0" encoding="ISO-8859-1"?>
<modeling>
 <generator>
  <i name="program" type="string">vasp </i>
  <i name="version" type="string">5.4.1  </i>
  <i name="subversion" type="string">05Feb16 (build Feb 24 2020 14:33:01) complex                          parallel </i>
  <i name="platform" type="string">IFC91_ompi </i>
  <i name="date" type="string">2020 02 27 </i>
  <i name="time" type="string">21:53:13 </i>
 </generator>
 <incar>
  <i type="string" name="SYSTEM"> diamond Si</i>
  <i type="int" name="ISTART">     0</i>
  <i type="string" name="PREC">accurate</i>
  <i type="int" name="NSIM">     4</i>
  <i type="int" name="ICHARG">     2</i>
  <i type="int" name="NELM">    60</i>
  <i type="int" name="NELMDL">     3</i>
  <i type="int" name="NELMIN">     0</i>
  <i type="int" name="IBRION">     2</i>
  <i name="EDIFF">      0.00010000</i>
  <i name="EDIFFG">     -0.01000000</i>
  <i type="int" name="NSW">     9</i>
  <i type="int" name="ISIF">     3</i>
  <i name="ENCUT">    240.00000000</i>
  <i name="POTIM">      1.00000000</i>
  <i type="logical" name="LPLANE"> F  </i>
  <i type="int" name="ISMEAR">     0</i>
  <i name="SIGMA">      0.10000000</i>
  <v type="int" name="KPOINT_BSE">    -1     0     0     0</v>
  <i type="int" name="NELM">    60</i>
 </incar>
 <kpoints>
  <generation param="Monkhorst-Pack">
   <v type="int" name="divisions">      10       10       10 </v>
   <v name="usershift">      0.00000000       0.00000000       0.00000000 </v>
   <v name="genvec1">      0.10000000       0.00000000       0.00000000 </v>
   <v name="genvec2">      0.00000000       0.10000000       0.00000000 </v>
   <v name="genvec3">      0.00000000       0.00000000       0.10000000 </v>
   <v name="shift">      0.50000000       0.50000000       0.50000000 </v>
  </generation>
  <varray name="kpointlist" >
   <v>       0.05000000       0.05000000       0.05000000 </v>
   <v>       0.15000000       0.05000000       0.05000000 </v>
   <v>       0.25000000       0.05000000       0.05000000 </v>
   <v>       0.35000000       0.05000000       0.05000000 </v>
   <v>       0.45000000       0.05000000       0.05000000 </v>
   <v>       0.15000000       0.15000000       0.05000000 </v>
   <v>       0.25000000       0.15000000       0.05000000 </v>
   <v>       0.35000000       0.15000000       0.05000000 </v>
   <v>       0.45000000       0.15000000       0.05000000 </v>
   <v>       0.25000000       0.25000000       0.05000000 </v>
   <v>       0.35000000       0.25000000       0.05000000 </v>
   <v>       0.45000000       0.25000000       0.05000000 </v>
   <v>       0.35000000       0.35000000       0.05000000 </v>
   <v>       0.45000000       0.35000000       0.05000000 </v>
   <v>       0.45000000       0.45000000       0.05000000 </v>
   <v>       0.15000000       0.15000000       0.15000000 </v>
   <v>       0.25000000       0.15000000       0.15000000 </v>
   <v>       0.35000000       0.15000000       0.15000000 </v>
   <v>       0.45000000       0.15000000       0.15000000 </v>
   <v>       0.25000000       0.25000000       0.15000000 </v>
   <v>       0.35000000       0.25000000       0.15000000 </v>
   <v>       0.45000000       0.25000000       0.15000000 </v>
   <v>       0.35000000       0.35000000       0.15000000 </v>
   <v>       0.45000000       0.35000000       0.15000000 </v>
   <v>       0.45000000       0.45000000       0.15000000 </v>
   <v>       0.25000000       0.25000000       0.25000000 </v>
   <v>       0.35000000       0.25000000       0.25000000 </v>
   <v>       0.45000000       0.25000000       0.25000000 </v>
   <v>       0.35000000       0.35000000       0.25000000 </v>
   <v>       0.45000000       0.35000000       0.25000000 </v>
   <v>       0.45000000       0.45000000       0.25000000 </v>
   <v>       0.35000000       0.35000000       0.35000000 </v>
   <v>       0.45000000       0.35000000       0.35000000 </v>
   <v>       0.45000000       0.45000000       0.35000000 </v>
   <v>       0.45000000       0.45000000       0.45000000 </v>
  </varray>
  <varray name="weights" >
   <v>       0.00800000 </v>
   <v>       0.02400000 </v>
   <v>       0.02400000 </v>
   <v>       0.02400000 </v>
   <v>       0.02400000 </v>
   <v>       0.02400000 </v>
   <v>       0.04800000 </v>
   <v>       0.04800000 </v>
   <v>       0.04800000 </v>
   <v>       0.02400000 </v>
   <v>       0.04800000 </v>
   <v>       0.04800000 </v>
   <v>       0.02400000 </v>
   <v>       0.04800000 </v>
   <v>       0.02400000 </v>
   <v>       0.00800000 </v>
   <v>       0.02400000 </v>
   <v>       0.02400000 </v>
   <v>       0.02400000 </v>
   <v>       0.02400000 </v>
   <v>       0.04800000 </v>
   <v>       0.04800000 </v>
   <v>       0.02400000 </v>
   <v>       0.04800000 </v>
   <v>       0.02400000 </v>
   <v>       0.00800000 </v>
   <v>       0.02400000 </v>
   <v>       0.02400000 </v>
   <v>       0.02400000 </v>
   <v>       0.04800000 </v>
   <v>       0.02400000 </v>
   <v>       0.00800000 </v>
   <v>       0.02400000 </v>
   <v>       0.02400000 </v>
   <v>       0.00800000 </v>
  </varray>
 </kpoints>
 <parameters>
  <separator name="general" >
   <i type="string" name="SYSTEM">diamond Si</i>
   <i type="logical" name="LCOMPAT"> F  </i>
  </separator>
  <separator name="electronic" >
   <i type="string" name="PREC">accura</i>
   <i name="ENMAX">    240.00000000</i>
   <i name="ENAUG">    322.06900000</i>
   <i name="EDIFF">      0.00010000</i>
   <i type="int" name="IALGO">    38</i>
   <i type="int" name="IWAVPR">    11</i>
   <i type="int" name="NBANDS">    25</i>
   <i name="NELECT">     32.00000000</i>
   <i type="int" name="TURBO">     0</i>
   <i type="int" name="IRESTART">     0</i>
   <i type="int" name="NREBOOT">     0</i>
   <i type="int" name="NMIN">     0</i>
   <i name="EREF">      0.00000000</i>
   <separator name="electronic smearing" >
    <i type="int" name="ISMEAR">     0</i>
    <i name="SIGMA">      0.10000000</i>
    <i name="KSPACING">      0.50000000</i>
    <i type="logical" name="KGAMMA"> T  </i>
   </separator>
   <separator name="electronic projectors" >
    <i type="logical" name="LREAL"> F  </i>
    <v name="ROPT">      0.00000000</v>
    <i type="int" name="LMAXPAW">  -100</i>
    <i type="int" name="LMAXMIX">     2</i>
    <i type="logical" name="NLSPLINE"> F  </i>
   </separator>
   <separator name="electronic startup" >
    <i type="int" name="ISTART">     0</i>
    <i type="int" name="ICHARG">     2</i>
    <i type="int" name="INIWAV">     1</i>
   </separator>
   <separator name="electronic spin" >
    <i type="int" name="ISPIN">     1</i>
    <i type="logical" name="LNONCOLLINEAR"> F  </i>
    <v name="MAGMOM">      1.00000000      1.00000000      1.00000000      1.00000000      1.00000000      1.00000000      1.00000000      1.00000000</v>
    <i name="NUPDOWN">     -1.00000000</i>
    <i type="logical" name="LSORBIT"> F  </i>
    <v name="SAXIS">      0.00000000      0.00000000      1.00000000</v>
    <i type="logical" name="LSPIRAL"> F  </i>
    <v name="QSPIRAL">      0.00000000      0.00000000      0.00000000</v>
    <i type="logical" name="LZEROZ"> F  </i>
   </separator>
   <separator name="electronic exchange-correlation" >
    <i type="logical" name="LASPH"> F  </i>
    <i type="logical" name="LMETAGGA"> F  </i>
   </separator>
   <separator name="electronic convergence" >
    <i type="int" name="NELM">    60</i>
    <i type="int" name="NELMDL">     3</i>
    <i type="int" name="NELMIN">     0</i>
    <i name="ENINI">    240.00000000</i>
    <separator name="electronic convergence detail" >
     <i type="logical" name="LDIAG"> T  </i>
     <i type="logical" name="LSUBROT"> F  </i>
     <i name="WEIMIN">      0.00100000</i>
     <i name="EBREAK">      0.00000100</i>
     <i name="DEPER">      0.30000000</i>
     <i type="int" name="NRMM">     4</i>
     <i name="TIME">      0.40000000</i>
    </separator>
   </separator>
   <separator name="electronic mixer" >
    <i name="AMIX">      0.40000000</i>
    <i name="BMIX">      1.00000000</i>
    <i name="AMIN">      0.10000000</i>
    <i name="AMIX_MAG">      1.60000000</i>
    <i name="BMIX_MAG">      1.00000000</i>
    <separator name="electronic mixer details" >
     <i type="int" name="IMIX">     4</i>
     <i type="logical" name="MIXFIRST"> F  </i>
     <i type="int" name="MAXMIX">   -45</i>
     <i name="WC">    100.00000000</i>
     <i type="int" name="INIMIX">     1</i>
     <i type="int" name="MIXPRE">     1</i>
     <i type="int" name="MREMOVE">     5</i>
    </separator>
   </separator>
   <separator name="electronic dipolcorrection" >
    <i type="logical" name="LDIPOL"> F  </i>
    <i type="logical" name="LMONO"> F  </i>
    <i type="int" name="IDIPOL">     0</i>
    <i name="EPSILON">      1.00000000</i>
    <v name="DIPOL">   -100.00000000   -100.00000000   -100.00000000</v>
    <i name="EFIELD">      0.00000000</i>
   </separator>
  </separator>
  <separator name="grids" >
   <i type="int" name="NGX">    28</i>
   <i type="int" name="NGY">    28</i>
   <i type="int" name="NGZ">    28</i>
   <i type="int" name="NGXF">    56</i>
   <i type="int" name="NGYF">    56</i>
   <i type="int" name="NGZF">    56</i>
   <i type="logical" name="ADDGRID"> F  </i>
  </separator>
  <separator name="ionic" >
   <i type="int" name="NSW">     9</i>
   <i type="int" name="IBRION">     2</i>
   <i type="int" name="ISIF">     3</i>
   <i name="PSTRESS">      0.00000000</i>
   <i name="EDIFFG">     -0.01000000</i>
   <i type="int" name="NFREE">     1</i>
   <i name="POTIM">      1.00000000</i>
   <i name="SMASS">     -3.00000000</i>
   <i name="SCALEE">      1.00000000</i>
  </separator>
  <separator name="ionic md" >
   <i name="TEBEG">      0.00010000</i>
   <i name="TEEND">      0.00010000</i>
   <i type="int" name="NBLOCK">     1</i>
   <i type="int" name="KBLOCK">     9</i>
   <i type="int" name="NPACO">   256</i>
   <i name="APACO">     16.00000000</i>
  </separator>
  <separator name="symmetry" >
   <i type="int" name="ISYM">     2</i>
   <i name="SYMPREC">      0.00001000</i>
  </separator>
  <separator name="dos" >
   <i type="logical" name="LORBIT"> F  </i>
   <v name="RWIGS">     -1.00000000</v>
   <i type="int" name="NEDOS">   301</i>
   <i name="EMIN">     10.00000000</i>
   <i name="EMAX">    -10.00000000</i>
   <i name="EFERMI">      0.00000000</i>
  </separator>
  <separator name="writing" >
   <i type="int" name="NWRITE">     2</i>
   <i type="logical" name="LWAVE"> T  </i>
   <i type="logical" name="LCHARG"> T  </i>
   <i type="logical" name="LPARD"> F  </i>
   <i type="logical" name="LVTOT"> F  </i>
   <i type="logical" name="LVHAR"> F  </i>
   <i type="logical" name="LELF"> F  </i>
   <i type="logical" name="LOPTICS"> F  </i>
   <v name="STM">      0.00000000      0.00000000      0.00000000      0.00000000      0.00000000      0.00000000      0.00000000</v>
  </separator>
  <separator name="performance" >
   <i type="int" name="NPAR">     5</i>
   <i type="int" name="NSIM">     4</i>
   <i type="int" name="NBLK">    -1</i>
   <i type="logical" name="LPLANE"> F  </i>
   <i type="logical" name="LSCALAPACK"> T  </i>
   <i type="logical" name="LSCAAWARE"> F  </i>
   <i type="logical" name="LSCALU"> F  </i>
   <i type="logical" name="LASYNC"> F  </i>
   <i type="logical" name="LORBITALREAL"> F  </i>
  </separator>
  <separator name="miscellaneous" >
   <i type="int" name="IDIOT">     3</i>
   <i type="logical" name="LMUSIC"> F  </i>
   <v name="POMASS">     28.08500000</v>
   <v name="DARWINR">      0.00000000</v>
   <v name="DARWINV">      1.00000000</v>
   <i type="logical" name="LCORR"> T  </i>
  </separator>
  <i type="logical" name="GGA_COMPAT"> T  </i>
  <i type="logical" name="LBERRY"> F  </i>
  <i type="int" name="ICORELEVEL">     0</i>
  <i type="logical" name="LDAU"> F  </i>
  <i type="int" name="I_CONSTRAINED_M">     0</i>
  <separator name="electronic exchange-correlation" >
   <i type="string" name="GGA">--</i>
   <i type="int" name="VOSKOWN">     0</i>
   <i type="logical" name="LHFCALC"> F  </i>
   <i type="string" name="PRECFOCK"></i>
   <i type="logical" name="LSYMGRAD"> F  </i>
   <i type="logical" name="LHFONE"> F  </i>
   <i type="logical" name="LRHFCALC"> F  </i>
   <i type="logical" name="LTHOMAS"> F  </i>
   <i type="logical" name="LMODELHF"> F  </i>
   <i name="ENCUT4O">     -1.00000000</i>
   <i type="int" name="EXXOEP">     0</i>
   <i type="int" name="FOURORBIT">     0</i>
   <i name="AEXX">      0.00000000</i>
   <i name="HFALPHA">      0.00000000</i>
   <i name="MCALPHA">      0.00000000</i>
   <i name="ALDAX">      1.00000000</i>
   <i name="AGGAX">      1.00000000</i>
   <i name="ALDAC">      1.00000000</i>
   <i name="AGGAC">      1.00000000</i>
   <i type="int" name="NKREDX">     1</i>
   <i type="int" name="NKREDY">     1</i>
   <i type="int" name="NKREDZ">     1</i>
   <i type="logical" name="SHIFTRED"> F  </i>
   <i type="logical" name="ODDONLY"> F  </i>
   <i type="logical" name="EVENONLY"> F  </i>
   <i type="int" name="LMAXFOCK">     0</i>
   <i type="int" name="NMAXFOCKAE">     0</i>
   <i type="logical" name="LFOCKAEDFT"> F  </i>
   <i name="HFSCREEN">      0.00000000</i>
   <i name="HFSCREENC">      0.00000000</i>
   <i type="int" name="NBANDSGWLOW">     0</i>
  </separator>
  <separator name="vdW DFT" >
   <i type="logical" name="LUSE_VDW"> F  </i>
   <i name="Zab_VDW">     -0.84910000</i>
   <i name="PARAM1">      0.12340000</i>
   <i name="PARAM2">      1.00000000</i>
   <i name="PARAM3">      0.00000000</i>
  </separator>
  <separator name="model GW" >
   <i type="int" name="MODEL_GW">     0</i>
   <i name="MODEL_EPS0">     12.01436085</i>
   <i name="MODEL_ALPHA">      1.00000000</i>
  </separator>
  <separator name="linear response parameters" >
   <i type="logical" name="LEPSILON"> F  </i>
   <i type="logical" name="LRPA"> F  </i>
   <i type="logical" name="LNABLA"> F  </i>
   <i type="logical" name="LVEL"> F  </i>
   <i type="int" name="KINTER">     0</i>
   <i name="CSHIFT">      0.10000000</i>
   <i name="OMEGAMAX">     -1.00000000</i>
   <i name="DEG_THRESHOLD">      0.00200000</i>
  </separator>
  <separator name="orbital magnetization" >
   <i type="logical" name="NUCIND"> F  </i>
   <v name="MAGPOS">      0.00000000      0.00000000      0.00000000</v>
   <i type="logical" name="LNICSALL"> T  </i>
   <i type="logical" name="ORBITALMAG"> F  </i>
   <i type="logical" name="LMAGBLOCH"> F  </i>
   <i type="logical" name="LCHIMAG"> F  </i>
   <i type="logical" name="LGAUGE"> T  </i>
   <i type="int" name="MAGATOM">     0</i>
   <v name="MAGDIPOL">      0.00000000      0.00000000      0.00000000</v>
   <v name="AVECCONST">      0.00000000      0.00000000      0.00000000</v>
  </separator>
  <separator name="response functions" >
   <i type="logical" name="LADDER"> F  </i>
   <i type="logical" name="LFXC"> F  </i>
   <i type="logical" name="LHARTREE"> T  </i>
   <i type="int" name="IBSE">     0</i>
   <v type="int" name="KPOINT">    -1     0     0     0</v>
   <i type="logical" name="LTCTE"> F  </i>
   <i type="logical" name="LTETE"> F  </i>
   <i type="logical" name="LTRIPLET"> F  </i>
   <i type="logical" name="LFXCEPS"> F  </i>
   <i type="logical" name="LFXHEG"> F  </i>
   <i type="int" name="NATURALO">     0</i>
   <i type="logical" name="L2ORDER"> F  </i>
   <i type="logical" name="LUSEW"> F  </i>
   <i name="ENCUTGW">     -2.00000000</i>
   <i name="ENCUTGWSOFT">     -2.00000000</i>
   <i name="ENCUTLF">     -1.00000000</i>
   <i type="int" name="LMAXMP2">    -1</i>
   <i name="SCISSOR">      0.00000000</i>
   <i type="int" name="NOMEGA">     0</i>
   <i type="int" name="NOMEGAR">     0</i>
   <i type="int" name="NBANDSGW">    -1</i>
   <i type="int" name="NBANDSO">    -1</i>
   <i type="int" name="NBANDSV">    -1</i>
   <i type="int" name="NELM">    60</i>
   <i type="int" name="NELMHF">     1</i>
   <i type="int" name="DIM">     3</i>
   <i type="int" name="ANTIRES">     0</i>
   <i name="OMEGAMAX">    -30.00000000</i>
   <i name="OMEGAMIN">    -30.00000000</i>
   <i name="OMEGATL">   -200.00000000</i>
   <i type="int" name="OMEGAGRID">     0</i>
   <i name="CSHIFT">     -0.10000000</i>
   <i type="logical" name="SELFENERGY"> F  </i>
   <i type="logical" name="LSPECTRAL"> F  </i>
   <i type="logical" name="LSPECTRALGW"> F  </i>
   <i type="logical" name="LSINGLES"> F  </i>
   <i type="logical" name="LFERMIGW"> F  </i>
   <i type="logical" name="ODDONLYGW"> F  </i>
   <i type="logical" name="EVENONLYGW"> F  </i>
   <i type="int" name="NKREDLFX">     1</i>
   <i type="int" name="NKREDLFY">     1</i>
   <i type="int" name="NKREDLFZ">     1</i>
   <i type="int" name="MAXMEM">  1800</i>
   <i type="int" name="TELESCOPE">     0</i>
   <i type="int" name="TAUPAR">     1</i>
   <i type="int" name="OMEGAPAR">    -1</i>
   <i name="LAMBDA">      1.00000000</i>
  </separator>
  <separator name="External order field" >
   <i name="OFIELD_KAPPA">      0.00000000</i>
   <v name="OFIELD_K">      0.00000000      0.00000000      0.00000000</v>
   <i name="OFIELD_Q6_NEAR">      0.00000000</i>
   <i name="OFIELD_Q6_FAR">      0.00000000</i>
   <i name="OFIELD_A">      0.00000000</i>
  </separator>
 </parameters>
 <atominfo>
  <atoms>       8 </atoms>
  <types>       1 </types>
  <array name="atoms" >
   <dimension dim="1">ion</dimension>
   <field type="string">element</field>
   <field type="int">atomtype</field>
   <set>
    <rc><c>Si</c><c>   1</c></rc>
    <rc><c>Si</c><c>   1</c></rc>
    <rc><c>Si</c><c>   1</c></rc>
    <rc><c>Si</c><c>   1</c></rc>
    <rc><c>Si</c><c>   1</c></rc>
    <rc><c>Si</c><c>   1</c></rc>
    <rc><c>Si</c><c>   1</c></rc>
    <rc><c>Si</c><c>   1</c></rc>
   </set>
  </array>
  <array name="atomtypes" >
   <dimension dim="1">type</dimension>
   <field type="int">atomspertype</field>
   <field type="string">element</field>
   <field>mass</field>
   <field>valence</field>
   <field type="string">pseudopotential</field>
   <set>
    <rc><c>   8</c><c>Si</c><c>     28.08500000</c><c>      4.00000000</c><c>  PAW_PBE Si 05Jan2001                  </c></rc>
   </set>
  </array>
 </atominfo>
 <structure name="initialpos" >
  <crystal>
   <varray name="basis" >
    <v>       5.43100000       0.00000000       0.00000000 </v>
    <v>       0.00000000       5.43100000       0.00000000 </v>
    <v>       0.00000000       0.00000000       5.43100000 </v>
   </varray>
   <i name="volume">    160.19147799 </i>
   <varray name="rec_basis" >
    <v>       0.18412815       0.00000000       0.00000000 </v>
    <v>       0.00000000       0.18412815       0.00000000 </v>
    <v>       0.00000000       0.00000000       0.18412815 </v>
   </varray>
  </crystal>
  <varray name="positions" >
   <v>       0.00000000       0.00000000       0.00000000 </v>
   <v>       0.00000000       0.50000000       0.50000000 </v>
   <v>       0.50000000       0.00000000       0.50000000 </v>
   <v>       0.50000000       0.50000000       0.00000000 </v>
   <v>       0.25000000       0.25000000       0.25000000 </v>
   <v>       0.75000000       0.75000000       0.25000000 </v>
   <v>       0.75000000       0.25000000       0.75000000 </v>
   <v>       0.25000000       0.75000000       0.75000000 </v>
  </varray>
 </structure>
 <calculation>
  <scstep>
   <time name="dav">    0.47    0.48</time>
   <time name="total">    0.48    0.49</time>
   <energy>
    <i name="alphaZ">     13.44915721 </i>
    <i name="ewald">   -914.08579262 </i>
    <i name="hartreedc">    -44.03749844 </i>
    <i name="XCdc">    -74.41614067 </i>
    <i name="pawpsdc">    704.99039692 </i>
    <i name="pawaedc">   -564.24414232 </i>
    <i name="eentropy">     -0.01594865 </i>
    <i name="bandstr">     83.73603025 </i>
    <i name="atom">    824.48621262 </i>
    <i name="e_fr_energy">     29.86227430 </i>
    <i name="e_wo_entrp">     29.87822295 </i>
    <i name="e_0_energy">     29.87024862 </i>
   </energy>
  </scstep>
  <scstep>
   <time name="dav">    0.31    0.31</time>
   <time name="total">    0.31    0.32</time>
   <energy>
    <i name="e_fr_energy">    -41.31103413 </i>
    <i name="e_wo_entrp">    -41.31103413 </i>
    <i name="e_0_energy">    -41.31103413 </i>
   </energy>
  </scstep>
  <scstep>
   <time name="dav">    0.30    0.31</time>
   <time name="total">    0.32    0.33</time>
   <energy>
    <i name="e_fr_energy">    -43.96939876 </i>
    <i name="e_wo_entrp">    -43.96939876 </i>
    <i name="e_0_energy">    -43.96939876 </i>
   </energy>
  </scstep>
  <scstep>
   <time name="dav">    0.37    0.37</time>
   <time name="total">    0.39    0.40</time>
   <energy>
    <i name="e_fr_energy">    -43.50139467 </i>
    <i name="e_wo_entrp">    -43.50139467 </i>
    <i name="e_0_energy">    -43.50139467 </i>
   </energy>
  </scstep>
  <scstep>
   <time name="dav">    0.28    0.28</time>
   <time name="total">    0.30    0.31</time>
   <energy>
    <i name="e_fr_energy">    -43.27289633 </i>
    <i name="e_wo_entrp">    -43.27289633 </i>
    <i name="e_0_energy">    -43.27289633 </i>
   </energy>
  </scstep>
  <scstep>
   <time name="dav">    0.30    0.30</time>
   <time name="total">    0.32    0.32</time>
   <energy>
    <i name="e_fr_energy">    -43.27747253 </i>
    <i name="e_wo_entrp">    -43.27747252 </i>
    <i name="e_0_energy">    -43.27747253 </i>
   </energy>
  </scstep>
  <scstep>
   <time name="dav">    0.27    0.27</time>
   <time name="total">    0.29    0.30</time>
   <energy>
    <i name="e_fr_energy">    -43.27908463 </i>
    <i name="e_wo_entrp">    -43.27908463 </i>
    <i name="e_0_energy">    -43.27908463 </i>
   </energy>
  </scstep>
  <scstep>
   <time name="dav">    0.26    0.26</time>
   <time name="total">    0.28    0.28</time>
   <energy>
    <i name="e_fr_energy">    -43.27918749 </i>
    <i name="e_wo_entrp">    -43.27918749 </i>
    <i name="e_0_energy">    -43.27918749 </i>
   </energy>
  </scstep>
  <scstep>
   <time name="dav">    0.24    0.24</time>
   <time name="total">    0.24    0.25</time>
   <energy>
    <i name="alphaZ">     13.44915721 </i>
    <i name="ewald">   -914.08579262 </i>
    <i name="hartreedc">    -59.65419363 </i>
    <i name="XCdc">    -71.81892521 </i>
    <i name="pawpsdc">   4213.50759962 </i>
    <i name="pawaedc">  -4073.68785018 </i>
    <i name="eentropy">     -0.00000000 </i>
    <i name="bandstr">     24.52455005 </i>
    <i name="atom">    824.48621262 </i>
    <i name="e_fr_energy">    -43.27924213 </i>
    <i name="e_wo_entrp">    -43.27924213 </i>
    <i name="e_0_energy">    -43.27924213 </i>
   </energy>
  </scstep>
  <structure>
   <crystal>
    <varray name="basis" >
     <v>       5.43100000       0.00000000       0.00000000 </v>
     <v>       0.00000000       5.43100000       0.00000000 </v>
     <v>       0.00000000       0.00000000       5.43100000 </v>
    </varray>
    <i name="volume">    160.19147799 </i>
    <varray name="rec_basis" >
     <v>       0.18412815       0.00000000       0.00000000 </v>
     <v>       0.00000000       0.18412815       0.00000000 </v>
     <v>       0.00000000       0.00000000       0.18412815 </v>
    </varray>
   </crystal>
   <varray name="positions" >
    <v>       0.00000000       0.00000000       0.00000000 </v>
    <v>       0.00000000       0.50000000       0.50000000 </v>
    <v>       0.50000000       0.00000000       0.50000000 </v>
    <v>       0.50000000       0.50000000       0.00000000 </v>
    <v>       0.25000000       0.25000000       0.25000000 </v>
    <v>       0.75000000       0.75000000       0.25000000 </v>
    <v>       0.75000000       0.25000000       0.75000000 </v>
    <v>       0.25000000       0.75000000       0.75000000 </v>
   </varray>
  </structure>
  <varray name="forces" >
   <v>       0.00000000       0.00000000       0.00000000 </v>
   <v>       0.00000000       0.00000000       0.00000000 </v>
   <v>       0.00000000       0.00000000       0.00000000 </v>
   <v>       0.00000000      -0.00000000       0.00000000 </v>
   <v>      -0.00000000       0.00000000      -0.00000000 </v>
   <v>      -0.00000000       0.00000000      -0.00000000 </v>
   <v>      -0.00000000      -0.00000000      -0.00000000 </v>
   <v>      -0.00000000      -0.00000000      -0.00000000 </v>
  </varray>
  <varray name="stress" >
   <v>      17.39263494       0.00000000       0.00000000 </v>
   <v>       0.00000000      17.39263494      -0.00000000 </v>
   <v>       0.00000000       0.00000000      17.39263494 </v>
  </varray>
  <energy>
   <i name="e_fr_energy">    -43.27924213 </i>
   <i name="e_wo_entrp">    -43.27924213 </i>
   <i name="e_0_energy">     -0.00000000 </i>
  </energy>
  <time name="totalsc">    3.18    3.25</time>
 </calculation>
 <calculation>
  <scstep>
   <time name="dav">    0.28    0.28</time>
   <time name="total">    0.29    0.29</time>
   <energy>
    <i name="alphaZ">     12.63723320 </i>
    <i name="ewald">   -895.30828223 </i>
    <i name="hartreedc">    -58.43048546 </i>
    <i name="XCdc">    -73.03776367 </i>
    <i name="pawpsdc">   4218.19621305 </i>
    <i name="pawaedc">  -4078.37599135 </i>
    <i name="eentropy">     -0.00000000 </i>
    <i name="bandstr">      6.54028873 </i>
    <i name="atom">    824.48621262 </i>
    <i name="e_fr_energy">    -43.29257511 </i>
    <i name="e_wo_entrp">    -43.29257511 </i>
    <i name="e_0_energy">    -43.29257511 </i>
   </energy>
  </scstep>
  <scstep>
   <time name="dav">    0.30    0.30</time>
   <time name="total">    0.30    0.30</time>
   <energy>
    <i name="e_fr_energy">    -43.29850228 </i>
    <i name="e_wo_entrp">    -43.29850228 </i>
    <i name="e_0_energy">    -43.29850228 </i>
   </energy>
  </scstep>
  <scstep>
   <time name="dav">    0.35    0.36</time>
   <time name="total">    0.37    0.37</time>
   <energy>
    <i name="e_fr_energy">    -43.29854892 </i>
    <i name="e_wo_entrp">    -43.29854892 </i>
    <i name="e_0_energy">    -43.29854892 </i>
   </energy>
  </scstep>
  <scstep>
   <time name="dav">    0.32    0.34</time>
   <time name="total">    0.35    0.38</time>
   <energy>
    <i name="e_fr_energy">    -43.24055861 </i>
    <i name="e_wo_entrp">    -43.24055861 </i>
    <i name="e_0_energy">    -43.24055861 </i>
   </energy>
  </scstep>
  <scstep>
   <time name="dav">    0.35    0.36</time>
   <time name="total">    0.37    0.38</time>
   <energy>
    <i name="e_fr_energy">    -43.21203425 </i>
    <i name="e_wo_entrp">    -43.21203425 </i>
    <i name="e_0_energy">    -43.21203425 </i>
   </energy>
  </scstep>
  <scstep>
   <time name="dav">    0.35    0.36</time>
   <time name="total">    0.38    0.38</time>
   <energy>
    <i name="e_fr_energy">    -43.21181587 </i>
    <i name="e_wo_entrp">    -43.21181587 </i>
    <i name="e_0_energy">    -43.21181587 </i>
   </energy>
  </scstep>
  <scstep>
   <time name="dav">    0.31    0.31</time>
   <time name="total">    0.31    0.32</time>
   <energy>
    <i name="alphaZ">     12.63723320 </i>
    <i name="ewald">   -895.30828223 </i>
    <i name="hartreedc">    -62.64326340 </i>
    <i name="XCdc">    -72.94679628 </i>
    <i name="pawpsdc">   3788.39797212 </i>
    <i name="pawaedc">  -3648.36903373 </i>
    <i name="eentropy">     -0.00000000 </i>
    <i name="bandstr">     10.53420326 </i>
    <i name="atom">    824.48621262 </i>
    <i name="e_fr_energy">    -43.21175444 </i>
    <i name="e_wo_entrp">    -43.21175444 </i>
    <i name="e_0_energy">    -43.21175444 </i>
   </energy>
  </scstep>
  <structure>
   <crystal>
    <varray name="basis" >
     <v>       5.54490564       0.00000000       0.00000000 </v>
     <v>       0.00000000       5.54490564      -0.00000000 </v>
     <v>       0.00000000       0.00000000       5.54490564 </v>
    </varray>
    <i name="volume">    170.48354950 </i>
    <varray name="rec_basis" >
     <v>       0.18034572      -0.00000000      -0.00000000 </v>
     <v>      -0.00000000       0.18034572      -0.00000000 </v>
     <v>      -0.00000000       0.00000000       0.18034572 </v>
    </varray>
   </crystal>
   <varray name="positions" >
    <v>       0.00000000       0.00000000       0.00000000 </v>
    <v>       0.00000000       0.50000000       0.50000000 </v>
    <v>       0.50000000       0.00000000       0.50000000 </v>
    <v>       0.50000000       0.50000000       0.00000000 </v>
    <v>       0.25000000       0.25000000       0.25000000 </v>
    <v>       0.75000000       0.75000000       0.25000000 </v>
    <v>       0.75000000       0.25000000       0.75000000 </v>
    <v>       0.25000000       0.75000000       0.75000000 </v>
   </varray>
  </structure>
  <varray name="forces" >
   <v>      -0.00000000      -0.00000000      -0.00000000 </v>
   <v>      -0.00000000      -0.00000000       0.00000000 </v>
   <v>       0.00000000       0.00000000       0.00000000 </v>
   <v>       0.00000000      -0.00000000      -0.00000000 </v>
   <v>      -0.00000000       0.00000000       0.00000000 </v>
   <v>       0.00000000       0.00000000       0.00000000 </v>
   <v>       0.00000000      -0.00000000      -0.00000000 </v>
   <v>      -0.00000000      -0.00000000      -0.00000000 </v>
  </varray>
  <varray name="stress" >
   <v>     -35.41160162       0.00000000       0.00000000 </v>
   <v>       0.00000000     -35.41160162      -0.00000000 </v>
   <v>       0.00000000       0.00000000     -35.41160162 </v>
  </varray>
  <energy>
   <i name="e_fr_energy">    -43.21175444 </i>
   <i name="e_wo_entrp">    -43.21175444 </i>
   <i name="e_0_energy">     -0.00000000 </i>
  </energy>
  <time name="totalsc">    2.50    2.60</time>
 </calculation>
 <calculation>
  <scstep>
   <time name="dav">    0.34    0.35</time>
   <time name="total">    0.35    0.37</time>
   <energy>
    <i name="alphaZ">     13.19644954 </i>
    <i name="ewald">   -908.32437632 </i>
    <i name="hartreedc">    -63.56876130 </i>
    <i name="XCdc">    -72.11065715 </i>
    <i name="pawpsdc">   3813.79840193 </i>
    <i name="pawaedc">  -3673.77369886 </i>
    <i name="eentropy">     -0.00000001 </i>
    <i name="bandstr">     22.96200620 </i>
    <i name="atom">    824.48621262 </i>
    <i name="e_fr_energy">    -43.33442336 </i>
    <i name="e_wo_entrp">    -43.33442335 </i>
    <i name="e_0_energy">    -43.33442336 </i>
   </energy>
  </scstep>
  <scstep>
   <time name="dav">    0.35    0.35</time>
   <time name="total">    0.35    0.35</time>
   <energy>
    <i name="e_fr_energy">    -43.33801076 </i>
    <i name="e_wo_entrp">    -43.33801075 </i>
    <i name="e_0_energy">    -43.33801075 </i>
   </energy>
  </scstep>
  <scstep>
   <time name="dav">    0.28    0.28</time>
   <time name="total">    0.29    0.30</time>
   <energy>
    <i name="e_fr_energy">    -43.33803019 </i>
    <i name="e_wo_entrp">    -43.33803018 </i>
    <i name="e_0_energy">    -43.33803019 </i>
   </energy>
  </scstep>
  <scstep>
   <time name="dav">    0.25    0.25</time>
   <time name="total">    0.27    0.28</time>
   <energy>
    <i name="e_fr_energy">    -43.30927929 </i>
    <i name="e_wo_entrp">    -43.30927929 </i>
    <i name="e_0_energy">    -43.30927929 </i>
   </energy>
  </scstep>
  <scstep>
   <time name="dav">    0.27    0.27</time>
   <time name="total">    0.29    0.30</time>
   <energy>
    <i name="e_fr_energy">    -43.29538219 </i>
    <i name="e_wo_entrp">    -43.29538219 </i>
    <i name="e_0_energy">    -43.29538219 </i>
   </energy>
  </scstep>
  <scstep>
   <time name="dav">    0.29    0.29</time>
   <time name="total">    0.29    0.30</time>
   <energy>
    <i name="alphaZ">     13.19644954 </i>
    <i name="ewald">   -908.32437632 </i>
    <i name="hartreedc">    -60.64325077 </i>
    <i name="XCdc">    -72.15112941 </i>
    <i name="pawpsdc">   4048.77559632 </i>
    <i name="pawaedc">  -3908.90782386 </i>
    <i name="eentropy">     -0.00000000 </i>
    <i name="bandstr">     20.27295589 </i>
    <i name="atom">    824.48621262 </i>
    <i name="e_fr_energy">    -43.29536599 </i>
    <i name="e_wo_entrp">    -43.29536599 </i>
    <i name="e_0_energy">    -43.29536599 </i>
   </energy>
  </scstep>
  <structure>
   <crystal>
    <varray name="basis" >
     <v>       5.46544832       0.00000000       0.00000000 </v>
     <v>       0.00000000       5.46544832      -0.00000000 </v>
     <v>       0.00000000       0.00000000       5.46544832 </v>
    </varray>
    <i name="volume">    163.25909211 </i>
    <varray name="rec_basis" >
     <v>       0.18296761      -0.00000000      -0.00000000 </v>
     <v>      -0.00000000       0.18296761      -0.00000000 </v>
     <v>      -0.00000000       0.00000000       0.18296761 </v>
    </varray>
   </crystal>
   <varray name="positions" >
    <v>       0.00000000       0.00000000       0.00000000 </v>
    <v>       0.00000000       0.50000000       0.50000000 </v>
    <v>       0.50000000       0.00000000       0.50000000 </v>
    <v>       0.50000000       0.50000000       0.00000000 </v>
    <v>       0.25000000       0.25000000       0.25000000 </v>
    <v>       0.75000000       0.75000000       0.25000000 </v>
    <v>       0.75000000       0.25000000       0.75000000 </v>
    <v>       0.25000000       0.75000000       0.75000000 </v>
   </varray>
  </structure>
  <varray name="forces" >
   <v>      -0.00000000       0.00000000       0.00000000 </v>
   <v>       0.00000000       0.00000000       0.00000000 </v>
   <v>       0.00000000       0.00000000       0.00000000 </v>
   <v>       0.00000000       0.00000000       0.00000000 </v>
   <v>      -0.00000000       0.00000000      -0.00000000 </v>
   <v>      -0.00000000      -0.00000000      -0.00000000 </v>
   <v>      -0.00000000      -0.00000000      -0.00000000 </v>
   <v>      -0.00000000       0.00000000       0.00000000 </v>
  </varray>
  <varray name="stress" >
   <v>      -0.84697795       0.00000000      -0.00000000 </v>
   <v>      -0.00000000      -0.84697795      -0.00000000 </v>
   <v>       0.00000000      -0.00000000      -0.84697795 </v>
  </varray>
  <energy>
   <i name="e_fr_energy">    -43.29536599 </i>
   <i name="e_wo_entrp">    -43.29536599 </i>
   <i name="e_0_energy">     -0.00000000 </i>
  </energy>
  <time name="totalsc">    2.04    2.09</time>
 </calculation>
 <calculation>
  <scstep>
   <time name="dav">    0.28    0.34</time>
   <time name="total">    0.28    0.35</time>
   <energy>
    <i name="alphaZ">     13.20825514 </i>
    <i name="ewald">   -908.59515917 </i>
    <i name="hartreedc">    -60.57194442 </i>
    <i name="XCdc">    -72.14666030 </i>
    <i name="pawpsdc">   4099.78163259 </i>
    <i name="pawaedc">  -3959.89659768 </i>
    <i name="eentropy">     -0.00000000 </i>
    <i name="bandstr">     20.43896283 </i>
    <i name="atom">    824.48621262 </i>
    <i name="e_fr_energy">    -43.29529838 </i>
    <i name="e_wo_entrp">    -43.29529838 </i>
    <i name="e_0_energy">    -43.29529838 </i>
   </energy>
  </scstep>
  <scstep>
   <time name="dav">    0.19    0.19</time>
   <time name="total">    0.19    0.20</time>
   <energy>
    <i name="e_fr_energy">    -43.29529896 </i>
    <i name="e_wo_entrp">    -43.29529896 </i>
    <i name="e_0_energy">    -43.29529896 </i>
   </energy>
  </scstep>
  <scstep>
   <time name="dav">    0.18    0.18</time>
   <time name="total">    0.20    0.20</time>
   <energy>
    <i name="e_fr_energy">    -43.29529901 </i>
    <i name="e_wo_entrp">    -43.29529901 </i>
    <i name="e_0_energy">    -43.29529901 </i>
   </energy>
  </scstep>
  <scstep>
   <time name="dav">    0.19    0.19</time>
   <time name="total">    0.19    0.20</time>
   <energy>
    <i name="alphaZ">     13.20825514 </i>
    <i name="ewald">   -908.59515917 </i>
    <i name="hartreedc">    -60.54734860 </i>
    <i name="XCdc">    -72.14781302 </i>
    <i name="pawpsdc">   4098.09501531 </i>
    <i name="pawaedc">  -3958.21028757 </i>
    <i name="eentropy">     -0.00000000 </i>
    <i name="bandstr">     20.41583383 </i>
    <i name="atom">    824.48621262 </i>
    <i name="e_fr_energy">    -43.29529145 </i>
    <i name="e_wo_entrp">    -43.29529145 </i>
    <i name="e_0_energy">    -43.29529145 </i>
   </energy>
  </scstep>
  <structure>
   <crystal>
    <varray name="basis" >
     <v>       5.46381949       0.00000000       0.00000000 </v>
     <v>       0.00000000       5.46381949      -0.00000000 </v>
     <v>       0.00000000       0.00000000       5.46381949 </v>
    </varray>
    <i name="volume">    163.11317039 </i>
    <varray name="rec_basis" >
     <v>       0.18302215      -0.00000000      -0.00000000 </v>
     <v>      -0.00000000       0.18302215      -0.00000000 </v>
     <v>      -0.00000000       0.00000000       0.18302215 </v>
    </varray>
   </crystal>
   <varray name="positions" >
    <v>       0.00000000       0.00000000       0.00000000 </v>
    <v>       0.00000000       0.50000000       0.50000000 </v>
    <v>       0.50000000       0.00000000       0.50000000 </v>
    <v>       0.50000000       0.50000000       0.00000000 </v>
    <v>       0.25000000       0.25000000       0.25000000 </v>
    <v>       0.75000000       0.75000000       0.25000000 </v>
    <v>       0.75000000       0.25000000       0.75000000 </v>
    <v>       0.25000000       0.75000000       0.75000000 </v>
   </varray>
  </structure>
  <varray name="forces" >
   <v>       0.00000000      -0.00000000      -0.00000000 </v>
   <v>       0.00000000       0.00000000       0.00000000 </v>
   <v>       0.00000000       0.00000000      -0.00000000 </v>
   <v>       0.00000000      -0.00000000       0.00000000 </v>
   <v>       0.00000000      -0.00000000      -0.00000000 </v>
   <v>      -0.00000000      -0.00000000      -0.00000000 </v>
   <v>      -0.00000000      -0.00000000       0.00000000 </v>
   <v>      -0.00000000      -0.00000000       0.00000000 </v>
  </varray>
  <varray name="stress" >
   <v>       0.29328861       0.00000000      -0.00000000 </v>
   <v>       0.00000000       0.29328861      -0.00000000 </v>
   <v>       0.00000000       0.00000000       0.29328861 </v>
  </varray>
  <energy>
   <i name="e_fr_energy">    -43.29529145 </i>
   <i name="e_wo_entrp">    -43.29529145 </i>
   <i name="e_0_energy">     -0.00000000 </i>
  </energy>
  <time name="totalsc">    1.00    1.11</time>
  <eigenvalues>
   <array>
    <dimension dim="1">band</dimension>
    <dimension dim="2">kpoint</dimension>
    <dimension dim="3">spin</dimension>
    <field>eigene</field>
    <field>occ</field>
    <set>
     <set comment="spin 1">
      <set comment="kpoint 1">
       <r>   -6.1572    1.0000 </r>
       <r>   -2.4756    1.0000 </r>
       <r>   -2.4756    1.0000 </r>
       <r>   -2.4756    1.0000 </r>
       <r>   -1.7192    1.0000 </r>
       <r>   -1.7192    1.0000 </r>
       <r>   -1.7192    1.0000 </r>
       <r>    2.7175    1.0000 </r>
       <r>    2.7175    1.0000 </r>
       <r>    2.7175    1.0000 </r>
       <r>    2.8717    1.0000 </r>
       <r>    2.8717    1.0000 </r>
       <r>    2.8717    1.0000 </r>
       <r>    5.2966    1.0000 </r>
       <r>    5.6032    1.0000 </r>
       <r>    5.6032    1.0000 </r>
       <r>    6.4109    0.0000 </r>
       <r>    6.4109    0.0000 </r>
       <r>    6.4109    0.0000 </r>
       <r>    6.6681    0.0000 </r>
       <r>    6.6681    0.0000 </r>
       <r>    6.6681    0.0000 </r>
       <r>    8.2622    0.0000 </r>
       <r>    8.2953    0.0000 </r>
       <r>    8.2953    0.0000 </r>
      </set>
      <set comment="kpoint 2">
       <r>   -6.0712    1.0000 </r>
       <r>   -3.1769    1.0000 </r>
       <r>   -2.4428    1.0000 </r>
       <r>   -2.4428    1.0000 </r>
       <r>   -1.7031    1.0000 </r>
       <r>   -1.7031    1.0000 </r>
       <r>   -0.9191    1.0000 </r>
       <r>    2.4074    1.0000 </r>
       <r>    2.4074    1.0000 </r>
       <r>    2.7880    1.0000 </r>
       <r>    2.7880    1.0000 </r>
       <r>    2.8022    1.0000 </r>
       <r>    2.9495    1.0000 </r>
       <r>    4.7427    1.0000 </r>
       <r>    5.3010    1.0000 </r>
       <r>    5.4288    1.0000 </r>
       <r>    6.3758    0.0000 </r>
       <r>    6.7015    0.0000 </r>
       <r>    6.7015    0.0000 </r>
       <r>    6.9351    0.0000 </r>
       <r>    7.2155    0.0000 </r>
       <r>    7.2155    0.0000 </r>
       <r>    8.1030    0.0000 </r>
       <r>    8.5215    0.0000 </r>
       <r>    8.6976    0.0000 </r>
      </set>
      <set comment="kpoint 3">
       <r>   -5.8997    1.0000 </r>
       <r>   -3.8165    1.0000 </r>
       <r>   -2.3862    1.0000 </r>
       <r>   -2.3862    1.0000 </r>
       <r>   -1.6788    1.0000 </r>
       <r>   -1.6788    1.0000 </r>
       <r>   -0.0870    1.0000 </r>
       <r>    2.0801    1.0000 </r>
       <r>    2.0801    1.0000 </r>
       <r>    2.5540    1.0000 </r>
       <r>    2.5540    1.0000 </r>
       <r>    2.9706    1.0000 </r>
       <r>    3.1044    1.0000 </r>
       <r>    4.0501    1.0000 </r>
       <r>    4.8686    1.0000 </r>
       <r>    4.9719    1.0000 </r>
       <r>    6.4261    0.0000 </r>
       <r>    7.3430    0.0000 </r>
       <r>    7.3493    0.0000 </r>
       <r>    7.3493    0.0000 </r>
       <r>    7.7916    0.0000 </r>
       <r>    8.0248    0.0000 </r>
       <r>    8.0248    0.0000 </r>
       <r>    9.0824    0.0000 </r>
       <r>    9.3321    0.0000 </r>
      </set>
      <set comment="kpoint 4">
       <r>   -5.6437    1.0000 </r>
       <r>   -4.3875    1.0000 </r>
       <r>   -2.3245    1.0000 </r>
       <r>   -2.3245    1.0000 </r>
       <r>   -1.6567    1.0000 </r>
       <r>   -1.6567    1.0000 </r>
       <r>    0.7641    1.0000 </r>
       <r>    1.8275    1.0000 </r>
       <r>    1.8275    1.0000 </r>
       <r>    2.3137    1.0000 </r>
       <r>    2.3137    1.0000 </r>
       <r>    3.2227    1.0000 </r>
       <r>    3.2815    1.0000 </r>
       <r>    3.3334    1.0000 </r>
       <r>    4.4181    1.0000 </r>
       <r>    4.4522    1.0000 </r>
       <r>    6.5683    0.0000 </r>
       <r>    7.4341    0.0000 </r>
       <r>    7.8770    0.0000 </r>
       <r>    8.2333    0.0000 </r>
       <r>    8.2333    0.0000 </r>
       <r>    8.9909    0.0000 </r>
       <r>    8.9909    0.0000 </r>
       <r>    9.6593    0.0000 </r>
       <r>   10.0777    0.0000 </r>
      </set>
      <set comment="kpoint 5">
       <r>   -5.3047    1.0000 </r>
       <r>   -4.8850    1.0000 </r>
       <r>   -2.2830    1.0000 </r>
       <r>   -2.2830    1.0000 </r>
       <r>   -1.6449    1.0000 </r>
       <r>   -1.6449    1.0000 </r>
       <r>    1.6198    1.0000 </r>
       <r>    1.6943    1.0000 </r>
       <r>    1.6943    1.0000 </r>
       <r>    2.1671    1.0000 </r>
       <r>    2.1671    1.0000 </r>
       <r>    2.4649    1.0000 </r>
       <r>    3.5565    1.0000 </r>
       <r>    3.6333    1.0000 </r>
       <r>    3.9700    1.0000 </r>
       <r>    3.9989    1.0000 </r>
       <r>    6.7937    0.0000 </r>
       <r>    7.0895    0.0000 </r>
       <r>    8.5233    0.0000 </r>
       <r>    9.2330    0.0000 </r>
       <r>    9.2478    0.0000 </r>
       <r>    9.2478    0.0000 </r>
       <r>    9.9684    0.0000 </r>
       <r>    9.9684    0.0000 </r>
       <r>   10.6207    0.0000 </r>
      </set>
      <set comment="kpoint 6">
       <r>   -5.9857    1.0000 </r>
       <r>   -3.1261    1.0000 </r>
       <r>   -3.1261    1.0000 </r>
       <r>   -2.4434    1.0000 </r>
       <r>   -1.6704    1.0000 </r>
       <r>   -0.9403    1.0000 </r>
       <r>   -0.9403    1.0000 </r>
       <r>    2.0150    1.0000 </r>
       <r>    2.5004    1.0000 </r>
       <r>    2.5004    1.0000 </r>
       <r>    2.8812    1.0000 </r>
       <r>    2.8812    1.0000 </r>
       <r>    3.0084    1.0000 </r>
       <r>    4.1586    1.0000 </r>
       <r>    5.0373    1.0000 </r>
       <r>    5.5276    1.0000 </r>
       <r>    6.5989    0.0000 </r>
       <r>    6.7316    0.0000 </r>
       <r>    6.7316    0.0000 </r>
       <r>    7.4070    0.0000 </r>
       <r>    7.4070    0.0000 </r>
       <r>    7.9460    0.0000 </r>
       <r>    8.3172    0.0000 </r>
       <r>    8.4589    0.0000 </r>
       <r>    8.6917    0.0000 </r>
      </set>
      <set comment="kpoint 7">
       <r>   -5.8154    1.0000 </r>
       <r>   -3.7541    1.0000 </r>
       <r>   -3.0296    1.0000 </r>
       <r>   -2.4603    1.0000 </r>
       <r>   -1.6020    1.0000 </r>
       <r>   -0.9916    1.0000 </r>
       <r>   -0.1595    1.0000 </r>
       <r>    1.7050    1.0000 </r>
       <r>    2.1612    1.0000 </r>
       <r>    2.6834    1.0000 </r>
       <r>    2.7015    1.0000 </r>
       <r>    2.9916    1.0000 </r>
       <r>    3.0707    1.0000 </r>
       <r>    3.4980    1.0000 </r>
       <r>    4.5966    1.0000 </r>
       <r>    5.2733    1.0000 </r>
       <r>    6.8225    0.0000 </r>
       <r>    6.9427    0.0000 </r>
       <r>    7.4039    0.0000 </r>
       <r>    7.7572    0.0000 </r>
       <r>    8.1775    0.0000 </r>
       <r>    8.1799    0.0000 </r>
       <r>    8.7083    0.0000 </r>
       <r>    8.8482    0.0000 </r>
       <r>    9.2131    0.0000 </r>
      </set>
      <set comment="kpoint 8">
       <r>   -5.5613    1.0000 </r>
       <r>   -4.3172    1.0000 </r>
       <r>   -2.8994    1.0000 </r>
       <r>   -2.5151    1.0000 </r>
       <r>   -1.4955    1.0000 </r>
       <r>   -1.0831    1.0000 </r>
       <r>    0.6192    1.0000 </r>
       <r>    1.5306    1.0000 </r>
       <r>    1.8572    1.0000 </r>
       <r>    2.5584    1.0000 </r>
       <r>    2.8138    1.0000 </r>
       <r>    2.8228    1.0000 </r>
       <r>    2.9498    1.0000 </r>
       <r>    3.3616    1.0000 </r>
       <r>    4.1287    1.0000 </r>
       <r>    4.7828    1.0000 </r>
       <r>    6.9874    0.0000 </r>
       <r>    7.6519    0.0000 </r>
       <r>    7.8545    0.0000 </r>
       <r>    8.2435    0.0000 </r>
       <r>    8.2939    0.0000 </r>
       <r>    9.1189    0.0000 </r>
       <r>    9.2542    0.0000 </r>
       <r>    9.8575    0.0000 </r>
       <r>    9.9531    0.0000 </r>
      </set>
      <set comment="kpoint 9">
       <r>   -5.2250    1.0000 </r>
       <r>   -4.8091    1.0000 </r>
       <r>   -2.7536    1.0000 </r>
       <r>   -2.6172    1.0000 </r>
       <r>   -1.3583    1.0000 </r>
       <r>   -1.2117    1.0000 </r>
       <r>    1.3788    1.0000 </r>
       <r>    1.5090    1.0000 </r>
       <r>    1.6281    1.0000 </r>
       <r>    2.1099    1.0000 </r>
       <r>    2.5354    1.0000 </r>
       <r>    2.6393    1.0000 </r>
       <r>    3.2879    1.0000 </r>
       <r>    3.6852    1.0000 </r>
       <r>    3.7569    1.0000 </r>
       <r>    4.2451    1.0000 </r>
       <r>    7.2244    0.0000 </r>
       <r>    7.5211    0.0000 </r>
       <r>    8.5878    0.0000 </r>
       <r>    8.8442    0.0000 </r>
       <r>    9.2941    0.0000 </r>
       <r>    9.4483    0.0000 </r>
       <r>    9.6585    0.0000 </r>
       <r>   10.2581    0.0000 </r>
       <r>   10.3270    0.0000 </r>
      </set>
      <set comment="kpoint 10">
       <r>   -5.6474    1.0000 </r>
       <r>   -3.6329    1.0000 </r>
       <r>   -3.6329    1.0000 </r>
       <r>   -2.6002    1.0000 </r>
       <r>   -1.4590    1.0000 </r>
       <r>   -0.3057    1.0000 </r>
       <r>   -0.3057    1.0000 </r>
       <r>    1.4647    1.0000 </r>
       <r>    2.3226    1.0000 </r>
       <r>    2.3226    1.0000 </r>
       <r>    2.8731    1.0000 </r>
       <r>    2.9941    1.0000 </r>
       <r>    2.9941    1.0000 </r>
       <r>    3.2737    1.0000 </r>
       <r>    4.1537    1.0000 </r>
       <r>    5.3432    1.0000 </r>
       <r>    6.9069    0.0000 </r>
       <r>    7.5193    0.0000 </r>
       <r>    7.5193    0.0000 </r>
       <r>    8.4751    0.0000 </r>
       <r>    8.4751    0.0000 </r>
       <r>    8.4894    0.0000 </r>
       <r>    8.7879    0.0000 </r>
       <r>    9.0914    0.0000 </r>
       <r>    9.7973    0.0000 </r>
      </set>
      <set comment="kpoint 11">
       <r>   -5.3971    1.0000 </r>
       <r>   -4.1790    1.0000 </r>
       <r>   -3.4604    1.0000 </r>
       <r>   -2.7936    1.0000 </r>
       <r>   -1.2620    1.0000 </r>
       <r>   -0.5169    1.0000 </r>
       <r>    0.3587    1.0000 </r>
       <r>    1.3838    1.0000 </r>
       <r>    1.9638    1.0000 </r>
       <r>    2.2444    1.0000 </r>
       <r>    2.5616    1.0000 </r>
       <r>    2.9826    1.0000 </r>
       <r>    3.3177    1.0000 </r>
       <r>    3.4209    1.0000 </r>
       <r>    3.6884    1.0000 </r>
       <r>    5.0434    1.0000 </r>
       <r>    7.3144    0.0000 </r>
       <r>    7.6991    0.0000 </r>
       <r>    8.4159    0.0000 </r>
       <r>    8.4932    0.0000 </r>
       <r>    8.8628    0.0000 </r>
       <r>    8.9060    0.0000 </r>
       <r>    9.3714    0.0000 </r>
       <r>    9.7297    0.0000 </r>
       <r>   10.2211    0.0000 </r>
      </set>
      <set comment="kpoint 12">
       <r>   -5.0667    1.0000 </r>
       <r>   -4.6590    1.0000 </r>
       <r>   -3.2495    1.0000 </r>
       <r>   -3.0190    1.0000 </r>
       <r>   -1.0249    1.0000 </r>
       <r>   -0.7673    1.0000 </r>
       <r>    0.9982    1.0000 </r>
       <r>    1.4574    1.0000 </r>
       <r>    1.6220    1.0000 </r>
       <r>    1.6618    1.0000 </r>
       <r>    2.8743    1.0000 </r>
       <r>    3.0644    1.0000 </r>
       <r>    3.2045    1.0000 </r>
       <r>    3.2538    1.0000 </r>
       <r>    3.9506    1.0000 </r>
       <r>    4.5248    1.0000 </r>
       <r>    7.9374    0.0000 </r>
       <r>    8.0747    0.0000 </r>
       <r>    8.2196    0.0000 </r>
       <r>    9.0406    0.0000 </r>
       <r>    9.3023    0.0000 </r>
       <r>    9.4335    0.0000 </r>
       <r>    9.4553    0.0000 </r>
       <r>   10.0008    0.0000 </r>
       <r>   10.1927    0.0000 </r>
      </set>
      <set comment="kpoint 13">
       <r>   -5.1531    1.0000 </r>
       <r>   -3.9780    1.0000 </r>
       <r>   -3.9780    1.0000 </r>
       <r>   -3.1083    1.0000 </r>
       <r>   -0.9843    1.0000 </r>
       <r>    0.0290    1.0000 </r>
       <r>    0.0290    1.0000 </r>
       <r>    1.3939    1.0000 </r>
       <r>    1.6685    1.0000 </r>
       <r>    2.1610    1.0000 </r>
       <r>    2.1610    1.0000 </r>
       <r>    3.2292    1.0000 </r>
       <r>    3.5298    1.0000 </r>
       <r>    3.5298    1.0000 </r>
       <r>    3.6502    1.0000 </r>
       <r>    5.0219    1.0000 </r>
       <r>    7.3400    0.0000 </r>
       <r>    8.5697    0.0000 </r>
       <r>    8.5944    0.0000 </r>
       <r>    8.5944    0.0000 </r>
       <r>    9.2846    0.0000 </r>
       <r>    9.5448    0.0000 </r>
       <r>    9.5448    0.0000 </r>
       <r>    9.5633    0.0000 </r>
       <r>    9.8037    0.0000 </r>
      </set>
      <set comment="kpoint 14">
       <r>   -4.8321    1.0000 </r>
       <r>   -4.4383    1.0000 </r>
       <r>   -3.7227    1.0000 </r>
       <r>   -3.4262    1.0000 </r>
       <r>   -0.6684    1.0000 </r>
       <r>   -0.3244    1.0000 </r>
       <r>    0.5657    1.0000 </r>
       <r>    1.1087    1.0000 </r>
       <r>    1.5443    1.0000 </r>
       <r>    1.8093    1.0000 </r>
       <r>    2.4449    1.0000 </r>
       <r>    2.8058    1.0000 </r>
       <r>    3.6609    1.0000 </r>
       <r>    3.7404    1.0000 </r>
       <r>    4.1295    1.0000 </r>
       <r>    4.6764    1.0000 </r>
       <r>    7.7917    0.0000 </r>
       <r>    8.5775    0.0000 </r>
       <r>    8.6763    0.0000 </r>
       <r>    8.8064    0.0000 </r>
       <r>    9.0785    0.0000 </r>
       <r>    9.1214    0.0000 </r>
       <r>    9.6131    0.0000 </r>
       <r>   10.2723    0.0000 </r>
       <r>   10.3362    0.0000 </r>
      </set>
      <set comment="kpoint 15">
       <r>   -4.5253    1.0000 </r>
       <r>   -4.1525    1.0000 </r>
       <r>   -4.1525    1.0000 </r>
       <r>   -3.8106    1.0000 </r>
       <r>   -0.2836    1.0000 </r>
       <r>    0.1304    1.0000 </r>
       <r>    0.1304    1.0000 </r>
       <r>    0.6076    1.0000 </r>
       <r>    1.7517    1.0000 </r>
       <r>    2.0593    1.0000 </r>
       <r>    2.0593    1.0000 </r>
       <r>    2.3980    1.0000 </r>
       <r>    4.1054    1.0000 </r>
       <r>    4.2158    1.0000 </r>
       <r>    4.2158    1.0000 </r>
       <r>    4.5868    1.0000 </r>
       <r>    7.8511    0.0000 </r>
       <r>    8.3038    0.0000 </r>
       <r>    8.3038    0.0000 </r>
       <r>    8.3282    0.0000 </r>
       <r>    9.8205    0.0000 </r>
       <r>    9.8205    0.0000 </r>
       <r>    9.9511    0.0000 </r>
       <r>   10.2017    0.0000 </r>
       <r>   10.7847    0.0000 </r>
      </set>
      <set comment="kpoint 16">
       <r>   -5.9010    1.0000 </r>
       <r>   -3.0869    1.0000 </r>
       <r>   -3.0869    1.0000 </r>
       <r>   -3.0869    1.0000 </r>
       <r>   -0.9730    1.0000 </r>
       <r>   -0.9730    1.0000 </r>
       <r>   -0.9730    1.0000 </r>
       <r>    2.1511    1.0000 </r>
       <r>    2.1511    1.0000 </r>
       <r>    2.1511    1.0000 </r>
       <r>    3.0840    1.0000 </r>
       <r>    3.0840    1.0000 </r>
       <r>    3.0840    1.0000 </r>
       <r>    3.5971    1.0000 </r>
       <r>    5.2765    1.0000 </r>
       <r>    5.2765    1.0000 </r>
       <r>    6.6838    0.0000 </r>
       <r>    6.6838    0.0000 </r>
       <r>    6.6838    0.0000 </r>
       <r>    8.0158    0.0000 </r>
       <r>    8.0802    0.0000 </r>
       <r>    8.0802    0.0000 </r>
       <r>    8.0802    0.0000 </r>
       <r>    8.7687    0.0000 </r>
       <r>    8.7687    0.0000 </r>
      </set>
      <set comment="kpoint 17">
       <r>   -5.7319    1.0000 </r>
       <r>   -3.6979    1.0000 </r>
       <r>   -3.0187    1.0000 </r>
       <r>   -3.0187    1.0000 </r>
       <r>   -1.0374    1.0000 </r>
       <r>   -1.0374    1.0000 </r>
       <r>   -0.2629    1.0000 </r>
       <r>    1.8787    1.0000 </r>
       <r>    1.8787    1.0000 </r>
       <r>    2.4251    1.0000 </r>
       <r>    2.9631    1.0000 </r>
       <r>    3.0790    1.0000 </r>
       <r>    3.0790    1.0000 </r>
       <r>    3.2336    1.0000 </r>
       <r>    4.8961    1.0000 </r>
       <r>    5.1205    1.0000 </r>
       <r>    6.8501    0.0000 </r>
       <r>    7.0360    0.0000 </r>
       <r>    7.0360    0.0000 </r>
       <r>    8.0692    0.0000 </r>
       <r>    8.3493    0.0000 </r>
       <r>    8.6740    0.0000 </r>
       <r>    8.9624    0.0000 </r>
       <r>    8.9624    0.0000 </r>
       <r>    9.2683    0.0000 </r>
      </set>
      <set comment="kpoint 18">
       <r>   -5.4798    1.0000 </r>
       <r>   -4.2506    1.0000 </r>
       <r>   -2.9426    1.0000 </r>
       <r>   -2.9426    1.0000 </r>
       <r>   -1.1176    1.0000 </r>
       <r>   -1.1176    1.0000 </r>
       <r>    0.4237    1.0000 </r>
       <r>    1.7215    1.0000 </r>
       <r>    1.7215    1.0000 </r>
       <r>    2.3310    1.0000 </r>
       <r>    2.8374    1.0000 </r>
       <r>    2.9492    1.0000 </r>
       <r>    2.9492    1.0000 </r>
       <r>    3.4550    1.0000 </r>
       <r>    4.4832    1.0000 </r>
       <r>    4.6149    1.0000 </r>
       <r>    7.0873    0.0000 </r>
       <r>    7.7404    0.0000 </r>
       <r>    7.7404    0.0000 </r>
       <r>    8.0099    0.0000 </r>
       <r>    8.7536    0.0000 </r>
       <r>    8.9759    0.0000 </r>
       <r>    9.8566    0.0000 </r>
       <r>    9.9500    0.0000 </r>
       <r>    9.9500    0.0000 </r>
      </set>
      <set comment="kpoint 19">
       <r>   -5.1468    1.0000 </r>
       <r>   -4.7356    1.0000 </r>
       <r>   -2.8906    1.0000 </r>
       <r>   -2.8906    1.0000 </r>
       <r>   -1.1763    1.0000 </r>
       <r>   -1.1763    1.0000 </r>
       <r>    1.0772    1.0000 </r>
       <r>    1.6604    1.0000 </r>
       <r>    1.6604    1.0000 </r>
       <r>    1.7068    1.0000 </r>
       <r>    2.8388    1.0000 </r>
       <r>    2.8388    1.0000 </r>
       <r>    3.3724    1.0000 </r>
       <r>    3.7432    1.0000 </r>
       <r>    3.9887    1.0000 </r>
       <r>    4.0909    1.0000 </r>
       <r>    7.3811    0.0000 </r>
       <r>    7.7071    0.0000 </r>
       <r>    8.6684    0.0000 </r>
       <r>    8.6684    0.0000 </r>
       <r>    9.2747    0.0000 </r>
       <r>    9.5666    0.0000 </r>
       <r>    9.7471    0.0000 </r>
       <r>    9.7471    0.0000 </r>
       <r>   10.1939    0.0000 </r>
      </set>
      <set comment="kpoint 20">
       <r>   -5.5655    1.0000 </r>
       <r>   -3.5912    1.0000 </r>
       <r>   -3.5912    1.0000 </r>
       <r>   -3.0147    1.0000 </r>
       <r>   -1.1016    1.0000 </r>
       <r>   -0.4532    1.0000 </r>
       <r>   -0.4532    1.0000 </r>
       <r>    1.7127    1.0000 </r>
       <r>    2.2153    1.0000 </r>
       <r>    2.2153    1.0000 </r>
       <r>    2.3528    1.0000 </r>
       <r>    3.2568    1.0000 </r>
       <r>    3.2568    1.0000 </r>
       <r>    3.3440    1.0000 </r>
       <r>    4.6058    1.0000 </r>
       <r>    5.1799    1.0000 </r>
       <r>    7.0076    0.0000 </r>
       <r>    7.2168    0.0000 </r>
       <r>    7.2168    0.0000 </r>
       <r>    7.9622    0.0000 </r>
       <r>    8.9184    0.0000 </r>
       <r>    9.1951    0.0000 </r>
       <r>    9.1951    0.0000 </r>
       <r>    9.2418    0.0000 </r>
       <r>    9.8988    0.0000 </r>
      </set>
      <set comment="kpoint 21">
       <r>   -5.3180    1.0000 </r>
       <r>   -4.1207    1.0000 </r>
       <r>   -3.4463    1.0000 </r>
       <r>   -3.0484    1.0000 </r>
       <r>   -1.1299    1.0000 </r>
       <r>   -0.6882    1.0000 </r>
       <r>    0.1039    1.0000 </r>
       <r>    1.6863    1.0000 </r>
       <r>    1.7563    1.0000 </r>
       <r>    2.0561    1.0000 </r>
       <r>    2.6787    1.0000 </r>
       <r>    3.2143    1.0000 </r>
       <r>    3.3958    1.0000 </r>
       <r>    3.5341    1.0000 </r>
       <r>    4.1696    1.0000 </r>
       <r>    4.9113    1.0000 </r>
       <r>    7.4083    0.0000 </r>
       <r>    7.4727    0.0000 </r>
       <r>    7.9115    0.0000 </r>
       <r>    8.1268    0.0000 </r>
       <r>    8.8892    0.0000 </r>
       <r>    9.5487    0.0000 </r>
       <r>    9.6437    0.0000 </r>
       <r>   10.0562    0.0000 </r>
       <r>   10.3764    0.0000 </r>
      </set>
      <set comment="kpoint 22">
       <r>   -4.9917    1.0000 </r>
       <r>   -4.5906    1.0000 </r>
       <r>   -3.2858    1.0000 </r>
       <r>   -3.1422    1.0000 </r>
       <r>   -1.0702    1.0000 </r>
       <r>   -0.9117    1.0000 </r>
       <r>    0.6436    1.0000 </r>
       <r>    1.1885    1.0000 </r>
       <r>    1.7676    1.0000 </r>
       <r>    1.9062    1.0000 </r>
       <r>    3.1973    1.0000 </r>
       <r>    3.2255    1.0000 </r>
       <r>    3.3121    1.0000 </r>
       <r>    3.7001    1.0000 </r>
       <r>    3.9260    1.0000 </r>
       <r>    4.4211    1.0000 </r>
       <r>    7.7767    0.0000 </r>
       <r>    8.0668    0.0000 </r>
       <r>    8.1562    0.0000 </r>
       <r>    8.8245    0.0000 </r>
       <r>    9.1220    0.0000 </r>
       <r>    9.2177    0.0000 </r>
       <r>    9.8432    0.0000 </r>
       <r>    9.8779    0.0000 </r>
       <r>   10.0740    0.0000 </r>
      </set>
      <set comment="kpoint 23">
       <r>   -5.0778    1.0000 </r>
       <r>   -3.9351    1.0000 </r>
       <r>   -3.9351    1.0000 </r>
       <r>   -3.2280    1.0000 </r>
       <r>   -1.0561    1.0000 </r>
       <r>   -0.2567    1.0000 </r>
       <r>   -0.2567    1.0000 </r>
       <r>    1.1954    1.0000 </r>
       <r>    1.7742    1.0000 </r>
       <r>    2.4594    1.0000 </r>
       <r>    2.4594    1.0000 </r>
       <r>    3.6239    1.0000 </r>
       <r>    3.6239    1.0000 </r>
       <r>    3.7098    1.0000 </r>
       <r>    3.7446    1.0000 </r>
       <r>    4.9514    1.0000 </r>
       <r>    7.4298    0.0000 </r>
       <r>    8.1473    0.0000 </r>
       <r>    8.1473    0.0000 </r>
       <r>    8.1639    0.0000 </r>
       <r>    9.1890    0.0000 </r>
       <r>    9.4293    0.0000 </r>
       <r>    9.5845    0.0000 </r>
       <r>    9.5845    0.0000 </r>
       <r>   10.5193    0.0000 </r>
      </set>
      <set comment="kpoint 24">
       <r>   -4.7629    1.0000 </r>
       <r>   -4.3790    1.0000 </r>
       <r>   -3.7075    1.0000 </r>
       <r>   -3.4605    1.0000 </r>
       <r>   -0.8735    1.0000 </r>
       <r>   -0.5966    1.0000 </r>
       <r>    0.1911    1.0000 </r>
       <r>    0.6724    1.0000 </r>
       <r>    1.9582    1.0000 </r>
       <r>    2.2020    1.0000 </r>
       <r>    2.8799    1.0000 </r>
       <r>    3.3086    1.0000 </r>
       <r>    3.7345    1.0000 </r>
       <r>    3.8011    1.0000 </r>
       <r>    4.1366    1.0000 </r>
       <r>    4.6386    1.0000 </r>
       <r>    7.8633    0.0000 </r>
       <r>    8.3519    0.0000 </r>
       <r>    8.3861    0.0000 </r>
       <r>    8.6147    0.0000 </r>
       <r>    9.0288    0.0000 </r>
       <r>    9.0494    0.0000 </r>
       <r>    9.0994    0.0000 </r>
       <r>    9.9404    0.0000 </r>
       <r>   10.0579    0.0000 </r>
      </set>
      <set comment="kpoint 25">
       <r>   -4.4658    1.0000 </r>
       <r>   -4.1091    1.0000 </r>
       <r>   -4.1091    1.0000 </r>
       <r>   -3.7952    1.0000 </r>
       <r>   -0.5892    1.0000 </r>
       <r>   -0.2288    1.0000 </r>
       <r>   -0.2288    1.0000 </r>
       <r>    0.1953    1.0000 </r>
       <r>    2.2211    1.0000 </r>
       <r>    2.5381    1.0000 </r>
       <r>    2.5381    1.0000 </r>
       <r>    2.9113    1.0000 </r>
       <r>    4.1439    1.0000 </r>
       <r>    4.2419    1.0000 </r>
       <r>    4.2419    1.0000 </r>
       <r>    4.5849    1.0000 </r>
       <r>    7.8966    0.0000 </r>
       <r>    8.2289    0.0000 </r>
       <r>    8.2928    0.0000 </r>
       <r>    8.2928    0.0000 </r>
       <r>    9.3261    0.0000 </r>
       <r>    9.3261    0.0000 </r>
       <r>    9.6223    0.0000 </r>
       <r>    9.6481    0.0000 </r>
       <r>   10.2270    0.0000 </r>
      </set>
      <set comment="kpoint 26">
       <r>   -5.4027    1.0000 </r>
       <r>   -3.5181    1.0000 </r>
       <r>   -3.5181    1.0000 </r>
       <r>   -3.5181    1.0000 </r>
       <r>   -0.6852    1.0000 </r>
       <r>   -0.6852    1.0000 </r>
       <r>   -0.6852    1.0000 </r>
       <r>    1.7568    1.0000 </r>
       <r>    2.1758    1.0000 </r>
       <r>    2.1758    1.0000 </r>
       <r>    2.1758    1.0000 </r>
       <r>    3.4823    1.0000 </r>
       <r>    3.4823    1.0000 </r>
       <r>    3.4823    1.0000 </r>
       <r>    4.9048    1.0000 </r>
       <r>    4.9048    1.0000 </r>
       <r>    7.2031    0.0000 </r>
       <r>    7.2031    0.0000 </r>
       <r>    7.2031    0.0000 </r>
       <r>    7.6266    0.0000 </r>
       <r>    9.1576    0.0000 </r>
       <r>    9.1576    0.0000 </r>
       <r>   10.1064    0.0000 </r>
       <r>   10.1064    0.0000 </r>
       <r>   10.1064    0.0000 </r>
      </set>
      <set comment="kpoint 27">
       <r>   -5.1611    1.0000 </r>
       <r>   -4.0098    1.0000 </r>
       <r>   -3.4365    1.0000 </r>
       <r>   -3.4365    1.0000 </r>
       <r>   -0.9127    1.0000 </r>
       <r>   -0.9127    1.0000 </r>
       <r>   -0.2639    1.0000 </r>
       <r>    1.1844    1.0000 </r>
       <r>    2.2042    1.0000 </r>
       <r>    2.2042    1.0000 </r>
       <r>    2.7917    1.0000 </r>
       <r>    3.5543    1.0000 </r>
       <r>    3.5543    1.0000 </r>
       <r>    3.6847    1.0000 </r>
       <r>    4.5787    1.0000 </r>
       <r>    4.7287    1.0000 </r>
       <r>    7.4737    0.0000 </r>
       <r>    7.5884    0.0000 </r>
       <r>    7.5884    0.0000 </r>
       <r>    7.7339    0.0000 </r>
       <r>    8.9740    0.0000 </r>
       <r>    9.4816    0.0000 </r>
       <r>   10.2775    0.0000 </r>
       <r>   10.2775    0.0000 </r>
       <r>   10.3993    0.0000 </r>
      </set>
      <set comment="kpoint 28">
       <r>   -4.8440    1.0000 </r>
       <r>   -4.4571    1.0000 </r>
       <r>   -3.3806    1.0000 </r>
       <r>   -3.3806    1.0000 </r>
       <r>   -1.0531    1.0000 </r>
       <r>   -1.0531    1.0000 </r>
       <r>    0.1776    1.0000 </r>
       <r>    0.6574    1.0000 </r>
       <r>    2.2453    1.0000 </r>
       <r>    2.2453    1.0000 </r>
       <r>    3.4867    1.0000 </r>
       <r>    3.5374    1.0000 </r>
       <r>    3.5374    1.0000 </r>
       <r>    3.9443    1.0000 </r>
       <r>    4.1764    1.0000 </r>
       <r>    4.2486    1.0000 </r>
       <r>    7.7731    0.0000 </r>
       <r>    7.9411    0.0000 </r>
       <r>    8.3042    0.0000 </r>
       <r>    8.3042    0.0000 </r>
       <r>    9.0215    0.0000 </r>
       <r>    9.2431    0.0000 </r>
       <r>    9.2431    0.0000 </r>
       <r>    9.6057    0.0000 </r>
       <r>    9.8869    0.0000 </r>
      </set>
      <set comment="kpoint 29">
       <r>   -4.9293    1.0000 </r>
       <r>   -3.8600    1.0000 </r>
       <r>   -3.8600    1.0000 </r>
       <r>   -3.4628    1.0000 </r>
       <r>   -1.0662    1.0000 </r>
       <r>   -0.6276    1.0000 </r>
       <r>   -0.6276    1.0000 </r>
       <r>    0.6393    1.0000 </r>
       <r>    2.3864    1.0000 </r>
       <r>    2.8235    1.0000 </r>
       <r>    2.8235    1.0000 </r>
       <r>    3.7989    1.0000 </r>
       <r>    3.7989    1.0000 </r>
       <r>    3.8252    1.0000 </r>
       <r>    4.3175    1.0000 </r>
       <r>    4.8155    1.0000 </r>
       <r>    7.5931    0.0000 </r>
       <r>    7.6272    0.0000 </r>
       <r>    7.8249    0.0000 </r>
       <r>    7.8249    0.0000 </r>
       <r>    9.1171    0.0000 </r>
       <r>    9.3108    0.0000 </r>
       <r>    9.6125    0.0000 </r>
       <r>    9.6125    0.0000 </r>
       <r>   10.2547    0.0000 </r>
      </set>
      <set comment="kpoint 30">
       <r>   -4.6281    1.0000 </r>
       <r>   -4.2665    1.0000 </r>
       <r>   -3.6952    1.0000 </r>
       <r>   -3.5514    1.0000 </r>
       <r>   -1.0716    1.0000 </r>
       <r>   -0.9145    1.0000 </r>
       <r>   -0.2737    1.0000 </r>
       <r>    0.1499    1.0000 </r>
       <r>    2.5804    1.0000 </r>
       <r>    2.7446    1.0000 </r>
       <r>    3.4281    1.0000 </r>
       <r>    3.8830    1.0000 </r>
       <r>    3.9206    1.0000 </r>
       <r>    3.9243    1.0000 </r>
       <r>    4.1441    1.0000 </r>
       <r>    4.5552    1.0000 </r>
       <r>    7.8715    0.0000 </r>
       <r>    7.9774    0.0000 </r>
       <r>    8.0121    0.0000 </r>
       <r>    8.3986    0.0000 </r>
       <r>    8.8274    0.0000 </r>
       <r>    8.9743    0.0000 </r>
       <r>    9.0780    0.0000 </r>
       <r>    9.4095    0.0000 </r>
       <r>    9.5825    0.0000 </r>
      </set>
      <set comment="kpoint 31">
       <r>   -4.3528    1.0000 </r>
       <r>   -4.0333    1.0000 </r>
       <r>   -4.0333    1.0000 </r>
       <r>   -3.7823    1.0000 </r>
       <r>   -0.9326    1.0000 </r>
       <r>   -0.6558    1.0000 </r>
       <r>   -0.6558    1.0000 </r>
       <r>   -0.2949    1.0000 </r>
       <r>    2.8967    1.0000 </r>
       <r>    3.1904    1.0000 </r>
       <r>    3.1904    1.0000 </r>
       <r>    3.5799    1.0000 </r>
       <r>    4.2146    1.0000 </r>
       <r>    4.2867    1.0000 </r>
       <r>    4.2867    1.0000 </r>
       <r>    4.5741    1.0000 </r>
       <r>    7.9030    0.0000 </r>
       <r>    7.9312    0.0000 </r>
       <r>    8.1275    0.0000 </r>
       <r>    8.1275    0.0000 </r>
       <r>    8.9627    0.0000 </r>
       <r>    8.9627    0.0000 </r>
       <r>    9.2353    0.0000 </r>
       <r>    9.3188    0.0000 </r>
       <r>    9.4808    0.0000 </r>
      </set>
      <set comment="kpoint 32">
       <r>   -4.7124    1.0000 </r>
       <r>   -3.7760    1.0000 </r>
       <r>   -3.7760    1.0000 </r>
       <r>   -3.7760    1.0000 </r>
       <r>   -0.9440    1.0000 </r>
       <r>   -0.9440    1.0000 </r>
       <r>   -0.9440    1.0000 </r>
       <r>    0.1184    1.0000 </r>
       <r>    3.1023    1.0000 </r>
       <r>    3.1023    1.0000 </r>
       <r>    3.1023    1.0000 </r>
       <r>    3.9897    1.0000 </r>
       <r>    3.9897    1.0000 </r>
       <r>    3.9897    1.0000 </r>
       <r>    4.6281    1.0000 </r>
       <r>    4.6281    1.0000 </r>
       <r>    7.3174    0.0000 </r>
       <r>    7.7781    0.0000 </r>
       <r>    7.7781    0.0000 </r>
       <r>    7.7781    0.0000 </r>
       <r>    9.1533    0.0000 </r>
       <r>    9.1533    0.0000 </r>
       <r>    9.4759    0.0000 </r>
       <r>    9.4759    0.0000 </r>
       <r>    9.4759    0.0000 </r>
      </set>
      <set comment="kpoint 33">
       <r>   -4.4356    1.0000 </r>
       <r>   -4.1147    1.0000 </r>
       <r>   -3.7185    1.0000 </r>
       <r>   -3.7185    1.0000 </r>
       <r>   -1.1261    1.0000 </r>
       <r>   -1.1261    1.0000 </r>
       <r>   -0.6930    1.0000 </r>
       <r>   -0.3324    1.0000 </r>
       <r>    3.2501    1.0000 </r>
       <r>    3.2501    1.0000 </r>
       <r>    3.8227    1.0000 </r>
       <r>    4.0990    1.0000 </r>
       <r>    4.0990    1.0000 </r>
       <r>    4.1906    1.0000 </r>
       <r>    4.4115    1.0000 </r>
       <r>    4.4150    1.0000 </r>
       <r>    7.4785    0.0000 </r>
       <r>    7.7943    0.0000 </r>
       <r>    8.0033    0.0000 </r>
       <r>    8.0033    0.0000 </r>
       <r>    8.9489    0.0000 </r>
       <r>    8.9489    0.0000 </r>
       <r>    8.9697    0.0000 </r>
       <r>    8.9746    0.0000 </r>
       <r>    9.3272    0.0000 </r>
      </set>
      <set comment="kpoint 34">
       <r>   -4.2004    1.0000 </r>
       <r>   -3.9485    1.0000 </r>
       <r>   -3.9485    1.0000 </r>
       <r>   -3.8046    1.0000 </r>
       <r>   -1.1596    1.0000 </r>
       <r>   -1.0043    1.0000 </r>
       <r>   -1.0043    1.0000 </r>
       <r>   -0.7285    1.0000 </r>
       <r>    3.6141    1.0000 </r>
       <r>    3.8249    1.0000 </r>
       <r>    3.8249    1.0000 </r>
       <r>    4.1926    1.0000 </r>
       <r>    4.3067    1.0000 </r>
       <r>    4.3383    1.0000 </r>
       <r>    4.3383    1.0000 </r>
       <r>    4.5439    1.0000 </r>
       <r>    7.4199    0.0000 </r>
       <r>    7.7215    0.0000 </r>
       <r>    7.7215    0.0000 </r>
       <r>    7.7728    0.0000 </r>
       <r>    8.9102    0.0000 </r>
       <r>    8.9102    0.0000 </r>
       <r>    9.0252    0.0000 </r>
       <r>    9.0975    0.0000 </r>
       <r>    9.1054    0.0000 </r>
      </set>
      <set comment="kpoint 35">
       <r>   -4.0337    1.0000 </r>
       <r>   -3.8902    1.0000 </r>
       <r>   -3.8902    1.0000 </r>
       <r>   -3.8902    1.0000 </r>
       <r>   -1.2002    1.0000 </r>
       <r>   -1.2002    1.0000 </r>
       <r>   -1.2002    1.0000 </r>
       <r>   -1.0455    1.0000 </r>
       <r>    4.2295    1.0000 </r>
       <r>    4.2295    1.0000 </r>
       <r>    4.2295    1.0000 </r>
       <r>    4.4031    1.0000 </r>
       <r>    4.4031    1.0000 </r>
       <r>    4.4031    1.0000 </r>
       <r>    4.4865    1.0000 </r>
       <r>    4.4865    1.0000 </r>
       <r>    7.1552    0.0000 </r>
       <r>    7.3686    0.0000 </r>
       <r>    7.3686    0.0000 </r>
       <r>    7.3686    0.0000 </r>
       <r>    8.9659    0.0000 </r>
       <r>    8.9659    0.0000 </r>
       <r>    8.9659    0.0000 </r>
       <r>    9.0387    0.0000 </r>
       <r>    9.0387    0.0000 </r>
      </set>
     </set>
    </set>
   </array>
  </eigenvalues>
  <separator name="orbital magnetization" >
   <v name="MAGDIPOLOUT">      0.00000000      0.00000000      0.00000000</v>
  </separator>
  <dos>
   <i name="efermi">      5.98616011 </i>
   <total>
    <array>
     <dimension dim="1">gridpoints</dimension>
     <dimension dim="2">spin</dimension>
     <field>energy</field>
     <field>total</field>
     <field>integrated</field>
     <set>
      <set comment="spin 1">
       <r>    -7.1572     0.0000     0.0000 </r>
       <r>    -7.0940     0.0000     0.0000 </r>
       <r>    -7.0309     0.0000     0.0000 </r>
       <r>    -6.9677     0.0000     0.0000 </r>
       <r>    -6.9046     0.0000     0.0000 </r>
       <r>    -6.8415     0.0000     0.0000 </r>
       <r>    -6.7783     0.0000     0.0000 </r>
       <r>    -6.7152     0.0000     0.0000 </r>
       <r>    -6.6520     0.0000     0.0000 </r>
       <r>    -6.5889     0.0000     0.0000 </r>
       <r>    -6.5258     0.0000     0.0000 </r>
       <r>    -6.4626     0.0000     0.0000 </r>
       <r>    -6.3995     0.0001     0.0000 </r>
       <r>    -6.3364     0.0014     0.0001 </r>
       <r>    -6.2732     0.0129     0.0009 </r>
       <r>    -6.2101     0.0626     0.0049 </r>
       <r>    -6.1469     0.1812     0.0163 </r>
       <r>    -6.0838     0.3515     0.0385 </r>
       <r>    -6.0207     0.5005     0.0701 </r>
       <r>    -5.9575     0.6053     0.1083 </r>
       <r>    -5.8944     0.7276     0.1542 </r>
       <r>    -5.8312     0.8589     0.2085 </r>
       <r>    -5.7681     0.8899     0.2647 </r>
       <r>    -5.7050     0.8721     0.3197 </r>
       <r>    -5.6418     1.0177     0.3840 </r>
       <r>    -5.5787     1.2407     0.4623 </r>
       <r>    -5.5155     1.2437     0.5408 </r>
       <r>    -5.4524     1.1074     0.6108 </r>
       <r>    -5.3893     1.1796     0.6852 </r>
       <r>    -5.3261     1.3770     0.7722 </r>
       <r>    -5.2630     1.4580     0.8643 </r>
       <r>    -5.1998     1.5059     0.9593 </r>
       <r>    -5.1367     1.6215     1.0617 </r>
       <r>    -5.0736     1.6564     1.1663 </r>
       <r>    -5.0104     1.5350     1.2632 </r>
       <r>    -4.9473     1.4062     1.3520 </r>
       <r>    -4.8841     1.5806     1.4518 </r>
       <r>    -4.8210     2.0418     1.5807 </r>
       <r>    -4.7579     2.2175     1.7207 </r>
       <r>    -4.6947     2.0266     1.8487 </r>
       <r>    -4.6316     1.9327     1.9707 </r>
       <r>    -4.5684     1.8341     2.0865 </r>
       <r>    -4.5053     1.7647     2.1979 </r>
       <r>    -4.4422     2.1275     2.3323 </r>
       <r>    -4.3790     2.5134     2.4910 </r>
       <r>    -4.3159     2.4734     2.6471 </r>
       <r>    -4.2527     2.3428     2.7951 </r>
       <r>    -4.1896     2.5471     2.9559 </r>
       <r>    -4.1265     2.9168     3.1401 </r>
       <r>    -4.0633     2.9074     3.3236 </r>
       <r>    -4.0002     2.7529     3.4974 </r>
       <r>    -3.9371     2.7866     3.6734 </r>
       <r>    -3.8739     2.8547     3.8536 </r>
       <r>    -3.8108     3.2850     4.0610 </r>
       <r>    -3.7476     4.0522     4.3169 </r>
       <r>    -3.6845     4.1782     4.5807 </r>
       <r>    -3.6214     3.3678     4.7933 </r>
       <r>    -3.5582     2.7468     4.9668 </r>
       <r>    -3.4951     3.0913     5.1620 </r>
       <r>    -3.4319     3.6919     5.3951 </r>
       <r>    -3.3688     3.2114     5.5978 </r>
       <r>    -3.3057     2.2027     5.7369 </r>
       <r>    -3.2425     1.9139     5.8577 </r>
       <r>    -3.1794     2.1821     5.9955 </r>
       <r>    -3.1162     2.7455     6.1689 </r>
       <r>    -3.0531     3.3896     6.3829 </r>
       <r>    -2.9900     3.5159     6.6049 </r>
       <r>    -2.9268     2.9447     6.7908 </r>
       <r>    -2.8637     2.2427     6.9324 </r>
       <r>    -2.8005     1.7221     7.0411 </r>
       <r>    -2.7374     1.3618     7.1271 </r>
       <r>    -2.6743     1.0840     7.1956 </r>
       <r>    -2.6111     1.1216     7.2664 </r>
       <r>    -2.5480     1.4920     7.3606 </r>
       <r>    -2.4848     2.0817     7.4920 </r>
       <r>    -2.4217     2.4833     7.6488 </r>
       <r>    -2.3586     2.2504     7.7909 </r>
       <r>    -2.2954     1.7134     7.8991 </r>
       <r>    -2.2323     1.0653     7.9663 </r>
       <r>    -2.1691     0.4282     7.9934 </r>
       <r>    -2.1060     0.0938     7.9993 </r>
       <r>    -2.0429     0.0104     8.0000 </r>
       <r>    -1.9797     0.0007     8.0000 </r>
       <r>    -1.9166     0.0048     8.0003 </r>
       <r>    -1.8535     0.0632     8.0043 </r>
       <r>    -1.7903     0.4193     8.0308 </r>
       <r>    -1.7272     1.4403     8.1217 </r>
       <r>    -1.6640     2.6392     8.2884 </r>
       <r>    -1.6009     2.7154     8.4598 </r>
       <r>    -1.5378     1.8456     8.5763 </r>
       <r>    -1.4746     1.2426     8.6548 </r>
       <r>    -1.4115     1.0323     8.7200 </r>
       <r>    -1.3483     1.0141     8.7840 </r>
       <r>    -1.2852     1.3387     8.8685 </r>
       <r>    -1.2221     2.2603     9.0112 </r>
       <r>    -1.1589     3.8583     9.2548 </r>
       <r>    -1.0958     5.7150     9.6157 </r>
       <r>    -1.0326     6.8114    10.0458 </r>
       <r>    -0.9695     6.6011    10.4625 </r>
       <r>    -0.9064     5.5110    10.8105 </r>
       <r>    -0.8432     3.7456    11.0470 </r>
       <r>    -0.7801     2.3734    11.1969 </r>
       <r>    -0.7169     2.5581    11.3584 </r>
       <r>    -0.6538     3.3598    11.5705 </r>
       <r>    -0.5907     3.2351    11.7748 </r>
       <r>    -0.5275     2.3069    11.9204 </r>
       <r>    -0.4644     1.5751    12.0199 </r>
       <r>    -0.4012     1.4612    12.1121 </r>
       <r>    -0.3381     2.3090    12.2579 </r>
       <r>    -0.2750     3.5653    12.4830 </r>
       <r>    -0.2118     3.5248    12.7056 </r>
       <r>    -0.1487     2.2565    12.8481 </r>
       <r>    -0.0855     1.1985    12.9237 </r>
       <r>    -0.0224     0.8497    12.9774 </r>
       <r>     0.0407     1.1773    13.0517 </r>
       <r>     0.1039     1.9934    13.1776 </r>
       <r>     0.1670     2.5900    13.3411 </r>
       <r>     0.2302     2.1534    13.4771 </r>
       <r>     0.2933     1.2108    13.5535 </r>
       <r>     0.3564     0.8174    13.6051 </r>
       <r>     0.4196     0.7821    13.6545 </r>
       <r>     0.4827     0.7345    13.7009 </r>
       <r>     0.5458     1.1478    13.7734 </r>
       <r>     0.6090     2.1477    13.9090 </r>
       <r>     0.6721     2.6328    14.0752 </r>
       <r>     0.7353     1.8983    14.1951 </r>
       <r>     0.7984     0.8662    14.2498 </r>
       <r>     0.8615     0.3202    14.2700 </r>
       <r>     0.9247     0.2690    14.2870 </r>
       <r>     0.9878     0.5857    14.3239 </r>
       <r>     1.0510     1.0140    14.3880 </r>
       <r>     1.1141     1.3846    14.4754 </r>
       <r>     1.1772     1.5826    14.5753 </r>
       <r>     1.2404     1.3524    14.6607 </r>
       <r>     1.3035     1.0442    14.7266 </r>
       <r>     1.3667     1.4339    14.8172 </r>
       <r>     1.4298     2.2024    14.9562 </r>
       <r>     1.4929     2.7192    15.1279 </r>
       <r>     1.5561     3.1667    15.3279 </r>
       <r>     1.6192     4.1202    15.5880 </r>
       <r>     1.6824     5.5685    15.9396 </r>
       <r>     1.7455     6.1172    16.3258 </r>
       <r>     1.8086     5.2604    16.6580 </r>
       <r>     1.8718     4.1001    16.9168 </r>
       <r>     1.9349     3.3200    17.1265 </r>
       <r>     1.9981     3.0101    17.3165 </r>
       <r>     2.0612     3.3483    17.5279 </r>
       <r>     2.1243     4.3163    17.8005 </r>
       <r>     2.1875     5.3319    18.1371 </r>
       <r>     2.2506     5.3256    18.4734 </r>
       <r>     2.3138     4.3704    18.7493 </r>
       <r>     2.3769     3.8102    18.9899 </r>
       <r>     2.4400     4.0255    19.2441 </r>
       <r>     2.5032     4.5734    19.5328 </r>
       <r>     2.5663     4.8633    19.8399 </r>
       <r>     2.6294     4.4438    20.1205 </r>
       <r>     2.6926     4.1187    20.3805 </r>
       <r>     2.7557     4.7862    20.6827 </r>
       <r>     2.8189     6.2258    21.0758 </r>
       <r>     2.8820     7.1302    21.5260 </r>
       <r>     2.9451     6.8072    21.9558 </r>
       <r>     3.0083     5.9548    22.3318 </r>
       <r>     3.0714     4.9849    22.6465 </r>
       <r>     3.1346     4.4869    22.9298 </r>
       <r>     3.1977     5.4308    23.2727 </r>
       <r>     3.2608     7.0598    23.7185 </r>
       <r>     3.3240     7.1672    24.1710 </r>
       <r>     3.3871     5.8790    24.5422 </r>
       <r>     3.4503     4.8809    24.8504 </r>
       <r>     3.5134     4.8330    25.1555 </r>
       <r>     3.5765     5.1116    25.4783 </r>
       <r>     3.6397     5.3971    25.8191 </r>
       <r>     3.7028     5.9636    26.1956 </r>
       <r>     3.7660     6.0750    26.5792 </r>
       <r>     3.8291     5.3323    26.9158 </r>
       <r>     3.8922     4.6624    27.2102 </r>
       <r>     3.9554     4.4307    27.4900 </r>
       <r>     4.0185     4.0261    27.7442 </r>
       <r>     4.0817     4.2872    28.0149 </r>
       <r>     4.1448     5.7922    28.3806 </r>
       <r>     4.2079     6.5650    28.7951 </r>
       <r>     4.2711     5.6114    29.1494 </r>
       <r>     4.3342     4.1331    29.4104 </r>
       <r>     4.3974     3.3309    29.6207 </r>
       <r>     4.4605     3.2725    29.8273 </r>
       <r>     4.5236     3.6544    30.0580 </r>
       <r>     4.5868     4.2605    30.3270 </r>
       <r>     4.6499     4.0788    30.5846 </r>
       <r>     4.7131     2.9963    30.7738 </r>
       <r>     4.7762     2.1458    30.9092 </r>
       <r>     4.8393     1.9013    31.0293 </r>
       <r>     4.9025     2.0096    31.1562 </r>
       <r>     4.9656     2.1015    31.2889 </r>
       <r>     5.0287     1.9572    31.4124 </r>
       <r>     5.0919     1.5813    31.5123 </r>
       <r>     5.1550     1.1389    31.5842 </r>
       <r>     5.2182     1.0443    31.6501 </r>
       <r>     5.2813     1.3026    31.7324 </r>
       <r>     5.3444     1.3284    31.8163 </r>
       <r>     5.4076     0.9459    31.8760 </r>
       <r>     5.4707     0.6220    31.9152 </r>
       <r>     5.5339     0.5096    31.9474 </r>
       <r>     5.5970     0.4310    31.9746 </r>
       <r>     5.6601     0.2717    31.9918 </r>
       <r>     5.7233     0.1053    31.9984 </r>
       <r>     5.7864     0.0223    31.9998 </r>
       <r>     5.8496     0.0024    32.0000 </r>
       <r>     5.9127     0.0001    32.0000 </r>
       <r>     5.9758     0.0000    32.0000 </r>
       <r>     6.0390     0.0000    32.0000 </r>
       <r>     6.1021     0.0000    32.0000 </r>
       <r>     6.1653     0.0013    32.0001 </r>
       <r>     6.2284     0.0184    32.0013 </r>
       <r>     6.2915     0.1253    32.0092 </r>
       <r>     6.3547     0.4276    32.0362 </r>
       <r>     6.4178     0.7486    32.0834 </r>
       <r>     6.4810     0.7433    32.1304 </r>
       <r>     6.5441     0.6700    32.1727 </r>
       <r>     6.6072     0.9520    32.2328 </r>
       <r>     6.6704     1.5068    32.3279 </r>
       <r>     6.7335     1.9396    32.4504 </r>
       <r>     6.7967     1.9598    32.5741 </r>
       <r>     6.8598     1.8681    32.6921 </r>
       <r>     6.9229     2.0079    32.8188 </r>
       <r>     6.9861     2.2685    32.9621 </r>
       <r>     7.0492     2.2054    33.1013 </r>
       <r>     7.1123     1.8743    33.2197 </r>
       <r>     7.1755     1.9593    33.3434 </r>
       <r>     7.2386     2.5334    33.5033 </r>
       <r>     7.3018     3.1450    33.7019 </r>
       <r>     7.3649     4.0913    33.9602 </r>
       <r>     7.4280     4.8824    34.2685 </r>
       <r>     7.4912     4.5679    34.5569 </r>
       <r>     7.5543     3.6276    34.7859 </r>
       <r>     7.6175     3.1355    34.9839 </r>
       <r>     7.6806     3.7048    35.2178 </r>
       <r>     7.7437     5.1829    35.5451 </r>
       <r>     7.8069     6.3976    35.9490 </r>
       <r>     7.8700     6.6167    36.3668 </r>
       <r>     7.9332     6.3584    36.7683 </r>
       <r>     7.9963     6.0514    37.1503 </r>
       <r>     8.0594     5.8767    37.5214 </r>
       <r>     8.1226     5.9716    37.8984 </r>
       <r>     8.1857     6.1429    38.2863 </r>
       <r>     8.2489     6.1388    38.6739 </r>
       <r>     8.3120     5.9977    39.0526 </r>
       <r>     8.3751     5.3965    39.3933 </r>
       <r>     8.4383     4.4964    39.6772 </r>
       <r>     8.5014     4.0255    39.9314 </r>
       <r>     8.5646     4.1008    40.1903 </r>
       <r>     8.6277     4.3283    40.4636 </r>
       <r>     8.6908     4.3002    40.7351 </r>
       <r>     8.7540     4.1966    41.0001 </r>
       <r>     8.8171     4.8180    41.3043 </r>
       <r>     8.8803     6.1196    41.6907 </r>
       <r>     8.9434     7.3741    42.1563 </r>
       <r>     9.0065     8.2627    42.6780 </r>
       <r>     9.0697     8.5103    43.2153 </r>
       <r>     9.1328     8.0694    43.7248 </r>
       <r>     9.1960     7.4767    44.1969 </r>
       <r>     9.2591     7.4696    44.6685 </r>
       <r>     9.3222     7.0103    45.1111 </r>
       <r>     9.3854     5.7134    45.4719 </r>
       <r>     9.4485     4.8979    45.7811 </r>
       <r>     9.5116     4.8808    46.0893 </r>
       <r>     9.5748     5.4164    46.4313 </r>
       <r>     9.6379     5.6351    46.7871 </r>
       <r>     9.7011     4.6161    47.0785 </r>
       <r>     9.7642     3.6143    47.3067 </r>
       <r>     9.8273     3.8343    47.5488 </r>
       <r>     9.8905     4.5762    47.8378 </r>
       <r>     9.9536     4.8495    48.1440 </r>
       <r>    10.0168     4.4681    48.4261 </r>
       <r>    10.0799     3.7370    48.6620 </r>
       <r>    10.1430     3.1543    48.8612 </r>
       <r>    10.2062     3.4070    49.0763 </r>
       <r>    10.2693     4.0761    49.3337 </r>
       <r>    10.3325     3.8481    49.5767 </r>
       <r>    10.3956     2.6901    49.7465 </r>
       <r>    10.4587     1.4223    49.8363 </r>
       <r>    10.5219     0.6909    49.8799 </r>
       <r>    10.5850     0.4758    49.9100 </r>
       <r>    10.6482     0.3943    49.9349 </r>
       <r>    10.7113     0.3065    49.9542 </r>
       <r>    10.7744     0.2898    49.9725 </r>
       <r>    10.8376     0.2617    49.9890 </r>
       <r>    10.9007     0.1352    49.9976 </r>
       <r>    10.9639     0.0340    49.9997 </r>
       <r>    11.0270     0.0041    50.0000 </r>
       <r>    11.0901     0.0002    50.0000 </r>
       <r>    11.1533     0.0000    50.0000 </r>
       <r>    11.2164     0.0000    50.0000 </r>
       <r>    11.2796     0.0000    50.0000 </r>
       <r>    11.3427     0.0000    50.0000 </r>
       <r>    11.4058     0.0000    50.0000 </r>
       <r>    11.4690     0.0000    50.0000 </r>
       <r>    11.5321     0.0000    50.0000 </r>
       <r>    11.5952     0.0000    50.0000 </r>
       <r>    11.6584     0.0000    50.0000 </r>
       <r>    11.7215     0.0000    50.0000 </r>
       <r>    11.7847     0.0000    50.0000 </r>
      </set>
     </set>
    </array>
   </total>
  </dos>
 </calculation>
 <structure name="finalpos" >
  <crystal>
   <varray name="basis" >
    <v>       5.46381949       0.00000000       0.00000000 </v>
    <v>       0.00000000       5.46381949      -0.00000000 </v>
    <v>       0.00000000       0.00000000       5.46381949 </v>
   </varray>
   <i name="volume">    163.11317039 </i>
   <varray name="rec_basis" >
    <v>       0.18302215      -0.00000000      -0.00000000 </v>
    <v>      -0.00000000       0.18302215      -0.00000000 </v>
    <v>      -0.00000000       0.00000000       0.18302215 </v>
   </varray>
  </crystal>
  <varray name="positions" >
   <v>       0.00000000       0.00000000       0.00000000 </v>
   <v>       0.00000000       0.50000000       0.50000000 </v>
   <v>       0.50000000       0.00000000       0.50000000 </v>
   <v>       0.50000000       0.50000000       0.00000000 </v>
   <v>       0.25000000       0.25000000       0.25000000 </v>
   <v>       0.75000000       0.75000000       0.25000000 </v>
   <v>       0.75000000       0.25000000       0.75000000 </v>
   <v>       0.25000000       0.75000000       0.75000000 </v>
  </varray>
 </structure>
</modeling>
