diamond Si                              
   5.43100000000000     
     1.022159    0.000000    0.000000
    -0.000000    1.022159    0.000000
    -0.000000   -0.000000    1.022159
   Si
     8
Direct
  0.000000  0.000000  0.000000
  0.000000  0.500000  0.500000
  0.500000  0.000000  0.500000
  0.500000  0.500000  0.000000
  0.250000  0.250000  0.250000
  0.750000  0.750000  0.250000
  0.750000  0.250000  0.750000
  0.250000  0.750000  0.750000
 
   64   64   64
 -30.023     -26.505     -16.579     -1.9775      14.889      31.469      45.578      55.735      61.313      62.492    
  60.086      55.291      49.401      43.313      37.390      31.876      26.929      22.622      18.958      15.889    
  13.345      11.245      9.5165      8.0975      6.9390      6.0025      5.2566      4.6748      4.2337      3.9132    
  3.6967      3.5719      3.5311      3.5719      3.6967      3.9132      4.2337      4.6748      5.2566      6.0025    
  6.9390      8.0975      9.5165      11.245      13.345      15.889      18.958      22.622      26.929      31.876    
  37.390      43.313      49.401      55.291      60.086      62.492      61.313      55.735      45.578      31.469    
  14.889     -1.9775     -16.579     -26.505     -26.505     -23.082     -13.429     0.76044      17.127      33.180    
  46.786      56.508      61.742      62.677      60.125      55.265      49.366      43.287      37.378      31.880    
  26.948      22.653      18.997      15.934      13.393      11.294      9.5661      8.1467      6.9873      6.0497    
  5.3026      4.7195      4.2772      3.9556      3.7382      3.6128      3.5719      3.6128      3.7382      3.9556    
  4.2772      4.7195      5.3026      6.0497      6.9873      8.1467      9.5661      11.294      13.393      15.934    
  18.997      22.653      26.948      31.880      37.378      43.287      49.366      55.265      60.125      62.677    
  61.742      56.508      46.786      33.180      17.127     0.76044     -13.429     -23.082     -16.579     -13.429    
 -4.5548      8.4561      23.399      37.950      50.129      58.618      62.883      63.142      60.188      55.156    
  49.245      43.198      37.335      31.887      27.001      22.743      19.114      16.069      13.537      11.443    
  9.7159      8.2953      7.1336      6.1930      5.4426      4.8560      4.4101      4.0853      3.8653      3.7382    
  3.6967      3.7382      3.8653      4.0853      4.4101      4.8560      5.4426      6.1930      7.1336      8.2953    
  9.7159      11.443      13.537      16.069      19.114      22.743      27.001      31.887      37.335      43.198    
  49.245      55.156      60.188      63.142      62.883      58.618      50.129      37.950      23.399      8.4561    
 -4.5548     -13.429     -1.9775     0.76044      8.4561      19.689      32.488      44.786      54.837      61.498    
  64.347      63.634      60.128      54.892      48.997      43.018      37.242      31.884      27.079      22.886    
  19.305      16.291      13.778      11.693      9.9688      8.5472      7.3824      6.4375      5.6822      5.0902    
  4.6390      4.3093      4.0853      3.9556      3.9132      3.9556      4.0853      4.3093      4.6390      5.0902    
  5.6822      6.4375      7.3824      8.5472      9.9688      11.693      13.778      16.291      19.305      22.886    
  27.079      31.884      37.242      43.018      48.997      54.892      60.128      63.634      64.347      61.498    
  54.837      44.786      32.488      19.689      8.4561     0.76044      14.889      17.127      23.399      32.488    
  42.713      52.322      59.854      64.382      65.610      63.826      59.761      54.383      48.565      42.708    
  37.073      31.853      27.169      23.074      19.565      16.600      14.117      12.048      10.330      8.9090    
  7.7416      6.7921      6.0309      5.4325      4.9748      4.6390      4.4101      4.2772      4.2337      4.2772    
  4.4101      4.6390      4.9748      5.4325      6.0309      6.7921      7.7416      8.9090      10.330      12.048    
  14.117      16.600      19.565      23.074      27.169      31.853      37.073      42.708      48.565      54.383    
  59.761      63.826      65.610      64.382      59.854      52.322      42.713      32.488      23.399      17.127    
  31.469      33.180      37.950      44.786      52.322      59.148      64.106      66.499      66.160      63.410    
  58.927      53.555      47.892      42.230      36.800      31.773      27.257      23.296      19.887      16.992    
  14.554      12.511      10.806      9.3901      8.2223      7.2692      6.5023      5.8972      5.4325      5.0902    
  4.8560      4.7195      4.6748      4.7195      4.8560      5.0902      5.4325      5.8972      6.5023      7.2692    
  8.2223      9.3901      10.806      12.511      14.554      16.992      19.887      23.296      27.257      31.773    
  36.800      42.230      47.892      53.555      58.927      63.410      66.160      66.499      64.106      59.148    
  52.322      44.786      37.950      33.180      45.578      46.786      50.129      54.837      59.854      64.106    
  66.735      67.260      65.632      62.192      57.549      52.351      46.938      41.553      36.400      31.628    
  27.330      23.545      20.268      17.468      15.093      13.089      11.407      10.003      8.8387      7.8844    
  7.1134      6.5023      6.0309      5.6822      5.4426      5.3026      5.2566      5.3026      5.4426      5.6822    
  6.0309      6.5023      7.1134      7.8844      8.8387      10.003      11.407      13.089      15.093      17.468    
  20.268      23.545      27.330      31.628      36.400      41.553      46.938      52.351      57.549      62.192    
  65.632      67.260      66.735      64.106      59.854      54.837      50.129      46.786      55.735      56.508    
  58.618      61.498      64.382      66.499      67.260      66.374      63.888      60.141      55.639      50.743    
  45.680      40.661      35.860      31.406      27.378      23.811      20.703      18.026      15.737      13.791    
  12.145      10.761      9.6077      8.6568      7.8844      7.2692      6.7921      6.4375      6.1930      6.0497    
  6.0025      6.0497      6.1930      6.4375      6.7921      7.2692      7.8844      8.6568      9.6077      10.761    
  12.145      13.791      15.737      18.026      20.703      23.811      27.378      31.406      35.860      40.661    
  45.680      50.743      55.639      60.141      63.888      66.374      67.260      66.499      64.382      61.498    
  58.618      56.508      61.313      61.742      62.883      64.347      65.610      66.160      65.632      63.888    
  61.038      57.390      53.228      48.744      44.128      39.556      35.177      31.100      27.395      24.091    
  21.189      18.666      16.490      14.624      13.031      11.682      10.548      9.6077      8.8387      8.2223    
  7.7416      7.3824      7.1336      6.9873      6.9390      6.9873      7.1336      7.3824      7.7416      8.2223    
  8.8387      9.6077      10.548      11.682      13.031      14.624      16.490      18.666      21.189      24.091    
  27.395      31.100      35.177      39.556      44.128      48.744      53.228      57.390      61.038      63.888    
  65.632      66.160      65.610      64.347      62.883      61.742      62.492      62.677      63.142      63.634    
  63.826      63.410      62.192      60.141      57.390      54.093      50.380      46.400      42.310      38.256    
  34.359      30.714      27.378      24.380      21.723      19.390      17.358      15.597      14.079      12.781    
  11.682      10.761      10.003      9.3901      8.9090      8.5472      8.2953      8.1467      8.0975      8.1467    
  8.2953      8.5472      8.9090      9.3901      10.003      10.761      11.682      12.781      14.079      15.597    
  17.358      19.390      21.723      24.380      27.378      30.714      34.359      38.256      42.310      46.400    
  50.380      54.093      57.390      60.141      62.192      63.410      63.826      63.634      63.142      62.677    
  60.086      60.125      60.188      60.128      59.761      58.927      57.549      55.639      53.228      50.380    
  47.192      43.783      40.278      36.792      33.425      30.254      27.330      24.678      22.305      20.200    
  18.345      16.719      15.303      14.079      13.031      12.145      11.407      10.806      10.330      9.9688    
  9.7159      9.5661      9.5165      9.5661      9.7159      9.9688      10.330      10.806      11.407      12.145    
  13.031      14.079      15.303      16.719      18.345      20.200      22.305      24.678      27.330      30.254    
  33.425      36.792      40.278      43.783      47.192      50.380      53.228      55.639      57.549      58.927    
  59.761      60.128      60.188      60.125      55.291      55.265      55.156      54.892      54.383      53.555    
  52.351      50.743      48.744      46.400      43.783      40.984      38.095      35.207      32.399      29.735    
  27.257      24.988      22.936      21.096      19.456      18.002      16.719      15.597      14.624      13.791    
  13.089      12.511      12.048      11.693      11.443      11.294      11.245      11.294      11.443      11.693    
  12.048      12.511      13.089      13.791      14.624      15.597      16.719      18.002      19.456      21.096    
  22.936      24.988      27.257      29.735      32.399      35.207      38.095      40.984      43.783      46.400    
  48.744      50.743      52.351      53.555      54.383      54.892      55.156      55.265      49.401      49.366    
  49.245      48.997      48.565      47.892      46.938      45.680      44.128      42.310      40.278      38.095    
  35.829      33.548      31.314      29.175      27.169      25.314      23.621      22.085      20.700      19.456    
  18.345      17.358      16.490      15.737      15.093      14.554      14.117      13.778      13.537      13.393    
  13.345      13.393      13.537      13.778      14.117      14.554      15.093      15.737      16.490      17.358    
  18.345      19.456      20.700      22.085      23.621      25.314      27.169      29.175      31.314      33.548    
  35.829      38.095      40.278      42.310      44.128      45.680      46.938      47.892      48.565      48.997    
  49.245      49.366      43.313      43.287      43.198      43.018      42.708      42.230      41.553      40.661    
  39.556      38.256      36.792      35.207      33.548      31.864      30.201      28.596      27.079      25.665    
  24.363      23.172      22.085      21.096      20.200      19.390      18.666      18.026      17.468      16.992    
  16.600      16.291      16.069      15.934      15.889      15.934      16.069      16.291      16.600      16.992    
  17.468      18.026      18.666      19.390      20.200      21.096      22.085      23.172      24.363      25.665    
  27.079      28.596      30.201      31.864      33.548      35.207      36.792      38.256      39.556      40.661    
  41.553      42.230      42.708      43.018      43.198      43.287      37.390      37.378      37.335      37.242    
  37.073      36.800      36.400      35.860      35.177      34.359      33.425      32.399      31.314      30.201    
  29.094      28.020      27.001      26.050      25.171      24.363      23.621      22.936      22.305      21.723    
  21.189      20.703      20.268      19.887      19.565      19.305      19.114      18.997      18.958      18.997    
  19.114      19.305      19.565      19.887      20.268      20.703      21.189      21.723      22.305      22.936    
  23.621      24.363      25.171      26.050      27.001      28.020      29.094      30.201      31.314      32.399    
  33.425      34.359      35.177      35.860      36.400      36.800      37.073      37.242      37.335      37.378    
  31.876      31.880      31.887      31.884      31.853      31.773      31.628      31.406      31.100      30.714    
  30.254      29.735      29.175      28.596      28.020      27.465      26.948      26.476      26.050      25.665    
  25.314      24.988      24.678      24.380      24.091      23.811      23.545      23.296      23.074      22.886    
  22.743      22.653      22.622      22.653      22.743      22.886      23.074      23.296      23.545      23.811    
  24.091      24.380      24.678      24.988      25.314      25.665      26.050      26.476      26.948      27.465    
  28.020      28.596      29.175      29.735      30.254      30.714      31.100      31.406      31.628      31.773    
  31.853      31.884      31.887      31.880      26.929      26.948      27.001      27.079      27.169      27.257    
  27.330      27.378      27.395      27.378      27.330      27.257      27.169      27.079      27.001      26.948    
  26.929      26.948      27.001      27.079      27.169      27.257      27.330      27.378      27.395      27.378    
  27.330      27.257      27.169      27.079      27.001      26.948      26.929      26.948      27.001      27.079    
  27.169      27.257      27.330      27.378      27.395      27.378      27.330      27.257      27.169      27.079    
  27.001      26.948      26.929      26.948      27.001      27.079      27.169      27.257      27.330      27.378    
  27.395      27.378      27.330      27.257      27.169      27.079      27.001      26.948      22.622      22.653    
  22.743      22.886      23.074      23.296      23.545      23.811      24.091      24.380      24.678      24.988    
  25.314      25.665      26.050      26.476      26.948      27.465      28.020      28.596      29.175      29.735    
  30.254      30.714      31.100      31.406      31.628      31.773      31.853      31.884      31.887      31.880    
  31.876      31.880      31.887      31.884      31.853      31.773      31.628      31.406      31.100      30.714    
  30.254      29.735      29.175      28.596      28.020      27.465      26.948      26.476      26.050      25.665    
  25.314      24.988      24.678      24.380      24.091      23.811      23.545      23.296      23.074      22.886    
  22.743      22.653      18.958      18.997      19.114      19.305      19.565      19.887      20.268      20.703    
  21.189      21.723      22.305      22.936      23.621      24.363      25.171      26.050      27.001      28.020    
  29.094      30.201      31.314      32.399      33.425      34.359      35.177      35.860      36.400      36.800    
  37.073      37.242      37.335      37.378      37.390      37.378      37.335      37.242      37.073      36.800    
  36.400      35.860      35.177      34.359      33.425      32.399      31.314      30.201      29.094      28.020    
  27.001      26.050      25.171      24.363      23.621      22.936      22.305      21.723      21.189      20.703    
  20.268      19.887      19.565      19.305      19.114      18.997      15.889      15.934      16.069      16.291    
  16.600      16.992      17.468      18.026      18.666      19.390      20.200      21.096      22.085      23.172    
  24.363      25.665      27.079      28.596      30.201      31.864      33.548      35.207      36.792      38.256    
  39.556      40.661      41.553      42.230      42.708      43.018      43.198      43.287      43.313      43.287    
  43.198      43.018      42.708      42.230      41.553      40.661      39.556      38.256      36.792      35.207    
  33.548      31.864      30.201      28.596      27.079      25.665      24.363      23.172      22.085      21.096    
  20.200      19.390      18.666      18.026      17.468      16.992      16.600      16.291      16.069      15.934    
  13.345      13.393      13.537      13.778      14.117      14.554      15.093      15.737      16.490      17.358    
  18.345      19.456      20.700      22.085      23.621      25.314      27.169      29.175      31.314      33.548    
  35.829      38.095      40.278      42.310      44.128      45.680      46.938      47.892      48.565      48.997    
  49.245      49.366      49.401      49.366      49.245      48.997      48.565      47.892      46.938      45.680    
  44.128      42.310      40.278      38.095      35.829      33.548      31.314      29.175      27.169      25.314    
  23.621      22.085      20.700      19.456      18.345      17.358      16.490      15.737      15.093      14.554    
  14.117      13.778      13.537      13.393      11.245      11.294      11.443      11.693      12.048      12.511    
  13.089      13.791      14.624      15.597      16.719      18.002      19.456      21.096      22.936      24.988    
  27.257      29.735      32.399      35.207      38.095      40.984      43.783      46.400      48.744      50.743    
  52.351      53.555      54.383      54.892      55.156      55.265      55.291      55.265      55.156      54.892    
  54.383      53.555      52.351      50.743      48.744      46.400      43.783      40.984      38.095      35.207    
  32.399      29.735      27.257      24.988      22.936      21.096      19.456      18.002      16.719      15.597    
  14.624      13.791      13.089      12.511      12.048      11.693      11.443      11.294      9.5165      9.5661    
  9.7159      9.9688      10.330      10.806      11.407      12.145      13.031      14.079      15.303      16.719    
  18.345      20.200      22.305      24.678      27.330      30.254      33.425      36.792      40.278      43.783    
  47.192      50.380      53.228      55.639      57.549      58.927      59.761      60.128      60.188      60.125    
  60.086      60.125      60.188      60.128      59.761      58.927      57.549      55.639      53.228      50.380    
  47.192      43.783      40.278      36.792      33.425      30.254      27.330      24.678      22.305      20.200    
  18.345      16.719      15.303      14.079      13.031      12.145      11.407      10.806      10.330      9.9688    
  9.7159      9.5661      8.0975      8.1467      8.2953      8.5472      8.9090      9.3901      10.003      10.761    
  11.682      12.781      14.079      15.597      17.358      19.390      21.723      24.380      27.378      30.714    
  34.359      38.256      42.310      46.400      50.380      54.093      57.390      60.141      62.192      63.410    
  63.826      63.634      63.142      62.677      62.492      62.677      63.142      63.634      63.826      63.410    
  62.192      60.141      57.390      54.093      50.380      46.400      42.310      38.256      34.359      30.714    
  27.378      24.380      21.723      19.390      17.358      15.597      14.079      12.781      11.682      10.761    
  10.003      9.3901      8.9090      8.5472      8.2953      8.1467      6.9390      6.9873      7.1336      7.3824    
  7.7416      8.2223      8.8387      9.6077      10.548      11.682      13.031      14.624      16.490      18.666    
  21.189      24.091      27.395      31.100      35.177      39.556      44.128      48.744      53.228      57.390    
  61.038      63.888      65.632      66.160      65.610      64.347      62.883      61.742      61.313      61.742    
  62.883      64.347      65.610      66.160      65.632      63.888      61.038      57.390      53.228      48.744    
  44.128      39.556      35.177      31.100      27.395      24.091      21.189      18.666      16.490      14.624    
  13.031      11.682      10.548      9.6077      8.8387      8.2223      7.7416      7.3824      7.1336      6.9873    
  6.0025      6.0497      6.1930      6.4375      6.7921      7.2692      7.8844      8.6568      9.6077      10.761    
  12.145      13.791      15.737      18.026      20.703      23.811      27.378      31.406      35.860      40.661    
  45.680      50.743      55.639      60.141      63.888      66.374      67.260      66.499      64.382      61.498    
  58.618      56.508      55.735      56.508      58.618      61.498      64.382      66.499      67.260      66.374    
  63.888      60.141      55.639      50.743      45.680      40.661      35.860      31.406      27.378      23.811    
  20.703      18.026      15.737      13.791      12.145      10.761      9.6077      8.6568      7.8844      7.2692    
  6.7921      6.4375      6.1930      6.0497      5.2566      5.3026      5.4426      5.6822      6.0309      6.5023    
  7.1134      7.8844      8.8387      10.003      11.407      13.089      15.093      17.468      20.268      23.545    
  27.330      31.628      36.400      41.553      46.938      52.351      57.549      62.192      65.632      67.260    
  66.735      64.106      59.854      54.837      50.129      46.786      45.578      46.786      50.129      54.837    
  59.854      64.106      66.735      67.260      65.632      62.192      57.549      52.351      46.938      41.553    
  36.400      31.628      27.330      23.545      20.268      17.468      15.093      13.089      11.407      10.003    
  8.8387      7.8844      7.1134      6.5023      6.0309      5.6822      5.4426      5.3026      4.6748      4.7195    
  4.8560      5.0902      5.4325      5.8972      6.5023      7.2692      8.2223      9.3901      10.806      12.511    
  14.554      16.992      19.887      23.296      27.257      31.773      36.800      42.230      47.892      53.555    
  58.927      63.410      66.160      66.499      64.106      59.148      52.322      44.786      37.950      33.180    
  31.469      33.180      37.950      44.786      52.322      59.148      64.106      66.499      66.160      63.410    
  58.927      53.555      47.892      42.230      36.800      31.773      27.257      23.296      19.887      16.992    
  14.554      12.511      10.806      9.3901      8.2223      7.2692      6.5023      5.8972      5.4325      5.0902    
  4.8560      4.7195      4.2337      4.2772      4.4101      4.6390      4.9748      5.4325      6.0309      6.7921    
  7.7416      8.9090      10.330      12.048      14.117      16.600      19.565      23.074      27.169      31.853    
  37.073      42.708      48.565      54.383      59.761      63.826      65.610      64.382      59.854      52.322    
  42.713      32.488      23.399      17.127      14.889      17.127      23.399      32.488      42.713      52.322    
  59.854      64.382      65.610      63.826      59.761      54.383      48.565      42.708      37.073      31.853    
  27.169      23.074      19.565      16.600      14.117      12.048      10.330      8.9090      7.7416      6.7921    
  6.0309      5.4325      4.9748      4.6390      4.4101      4.2772      3.9132      3.9556      4.0853      4.3093    
  4.6390      5.0902      5.6822      6.4375      7.3824      8.5472      9.9688      11.693      13.778      16.291    
  19.305      22.886      27.079      31.884      37.242      43.018      48.997      54.892      60.128      63.634    
  64.347      61.498      54.837      44.786      32.488      19.689      8.4561     0.76044     -1.9775     0.76044    
  8.4561      19.689      32.488      44.786      54.837      61.498      64.347      63.634      60.128      54.892    
  48.997      43.018      37.242      31.884      27.079      22.886      19.305      16.291      13.778      11.693    
  9.9688      8.5472      7.3824      6.4375      5.6822      5.0902      4.6390      4.3093      4.0853      3.9556    
  3.6967      3.7382      3.8653      4.0853      4.4101      4.8560      5.4426      6.1930      7.1336      8.2953    
  9.7159      11.443      13.537      16.069      19.114      22.743      27.001      31.887      37.335      43.198    
  49.245      55.156      60.188      63.142      62.883      58.618      50.129      37.950      23.399      8.4561    
 -4.5548     -13.429     -16.579     -13.429     -4.5548      8.4561      23.399      37.950      50.129      58.618    
  62.883      63.142      60.188      55.156      49.245      43.198      37.335      31.887      27.001      22.743    
  19.114      16.069      13.537      11.443      9.7159      8.2953      7.1336      6.1930      5.4426      4.8560    
  4.4101      4.0853      3.8653      3.7382      3.5719      3.6128      3.7382      3.9556      4.2772      4.7195    
  5.3026      6.0497      6.9873      8.1467      9.5661      11.294      13.393      15.934      18.997      22.653    
  26.948      31.880      37.378      43.287      49.366      55.265      60.125      62.677      61.742      56.508    
  46.786      33.180      17.127     0.76044     -13.429     -23.082     -26.505     -23.082     -13.429     0.76044    
  17.127      33.180      46.786      56.508      61.742      62.677      60.125      55.265      49.366      43.287    
  37.378      31.880      26.948      22.653      18.997      15.934      13.393      11.294      9.5661      8.1467    
  6.9873      6.0497      5.3026      4.7195      4.2772      3.9556      3.7382      3.6128      3.5311      3.5719    
  3.6967      3.9132      4.2337      4.6748      5.2566      6.0025      6.9390      8.0975      9.5165      11.245    
  13.345      15.889      18.958      22.622      26.929      31.876      37.390      43.313      49.401      55.291    
  60.086      62.492      61.313      55.735      45.578      31.469      14.889     -1.9775     -16.579     -26.505    
 -30.023     -26.505     -16.579     -1.9775      14.889      31.469      45.578      55.735      61.313      62.492    
  60.086      55.291      49.401      43.313      37.390      31.876      26.929      22.622      18.958      15.889    
  13.345      11.245      9.5165      8.0975      6.9390      6.0025      5.2566      4.6748      4.2337      3.9132    
  3.6967      3.5719      3.5719      3.6128      3.7382      3.9556      4.2772      4.7195      5.3026      6.0497    
  6.9873      8.1467      9.5661      11.294      13.393      15.934      18.997      22.653      26.948      31.880    
  37.378      43.287      49.366      55.265      60.125      62.677      61.742      56.508      46.786      33.180    
  17.127     0.76044     -13.429     -23.082     -26.505     -23.082     -13.429     0.76044      17.127      33.180    
  46.786      56.508      61.742      62.677      60.125      55.265      49.366      43.287      37.378      31.880    
  26.948      22.653      18.997      15.934      13.393      11.294      9.5661      8.1467      6.9873      6.0497    
  5.3026      4.7195      4.2772      3.9556      3.7382      3.6128      3.6967      3.7382      3.8653      4.0853    
  4.4101      4.8560      5.4426      6.1930      7.1336      8.2953      9.7159      11.443      13.537      16.069    
  19.114      22.743      27.001      31.887      37.335      43.198      49.245      55.156      60.188      63.142    
  62.883      58.618      50.129      37.950      23.399      8.4561     -4.5548     -13.429     -16.579     -13.429    
 -4.5548      8.4561      23.399      37.950      50.129      58.618      62.883      63.142      60.188      55.156    
  49.245      43.198      37.335      31.887      27.001      22.743      19.114      16.069      13.537      11.443    
  9.7159      8.2953      7.1336      6.1930      5.4426      4.8560      4.4101      4.0853      3.8653      3.7382    
  3.9132      3.9556      4.0853      4.3093      4.6390      5.0902      5.6822      6.4375      7.3824      8.5472    
  9.9688      11.693      13.778      16.291      19.305      22.886      27.079      31.884      37.242      43.018    
  48.997      54.892      60.128      63.634      64.347      61.498      54.837      44.786      32.488      19.689    
  8.4561     0.76044     -1.9775     0.76044      8.4561      19.689      32.488      44.786      54.837      61.498    
  64.347      63.634      60.128      54.892      48.997      43.018      37.242      31.884      27.079      22.886    
  19.305      16.291      13.778      11.693      9.9688      8.5472      7.3824      6.4375      5.6822      5.0902    
  4.6390      4.3093      4.0853      3.9556      4.2337      4.2772      4.4101      4.6390      4.9748      5.4325    
  6.0309      6.7921      7.7416      8.9090      10.330      12.048      14.117      16.600      19.565      23.074    
  27.169      31.853      37.073      42.708      48.565      54.383      59.761      63.826      65.610      64.382    
  59.854      52.322      42.713      32.488      23.399      17.127      14.889      17.127      23.399      32.488    
  42.713      52.322      59.854      64.382      65.610      63.826      59.761      54.383      48.565      42.708    
  37.073      31.853      27.169      23.074      19.565      16.600      14.117      12.048      10.330      8.9090    
  7.7416      6.7921      6.0309      5.4325      4.9748      4.6390      4.4101      4.2772      4.6748      4.7195    
  4.8560      5.0902      5.4325      5.8972      6.5023      7.2692      8.2223      9.3901      10.806      12.511    
  14.554      16.992      19.887      23.296      27.257      31.773      36.800      42.230      47.892      53.555    
  58.927      63.410      66.160      66.499      64.106      59.148      52.322      44.786      37.950      33.180    
  31.469      33.180      37.950      44.786      52.322      59.148      64.106      66.499      66.160      63.410    
  58.927      53.555      47.892      42.230      36.800      31.773      27.257      23.296      19.887      16.992    
  14.554      12.511      10.806      9.3901      8.2223      7.2692      6.5023      5.8972      5.4325      5.0902    
  4.8560      4.7195      5.2566      5.3026      5.4426      5.6822      6.0309      6.5023      7.1134      7.8844    