   8   8   0   0
  0.2002393E+02  0.5431000E-09  0.5431000E-09  0.5431000E-09  0.1000000E-14
  1.000000000000000E-004
  CAR 
 diamond Si                              
     11.87614285     -7.19579498  301      5.93122981      1.00000000
     -7.196  0.0000E+00  0.0000E+00
     -7.132  0.0000E+00  0.0000E+00
     -7.069  0.0000E+00  0.0000E+00
     -7.005  0.0000E+00  0.0000E+00
     -6.942  0.0000E+00  0.0000E+00
     -6.878  0.0000E+00  0.0000E+00
     -6.814  0.0000E+00  0.0000E+00
     -6.751  0.6415E-17  0.4078E-18
     -6.687  0.5559E-14  0.3538E-15
     -6.624  0.2364E-11  0.1507E-12
     -6.560  0.4733E-09  0.3024E-10
     -6.496  0.4542E-07  0.2918E-08
     -6.433  0.2136E-05  0.1387E-06
     -6.369  0.5039E-04  0.3342E-05
     -6.306  0.6112E-03  0.4220E-04
     -6.242  0.3924E-02  0.2916E-03
     -6.179  0.1401E-01  0.1182E-02
     -6.115  0.3093E-01  0.3148E-02
     -6.051  0.4978E-01  0.6313E-02
     -5.988  0.6498E-01  0.1044E-01
     -5.924  0.7464E-01  0.1519E-01
     -5.861  0.8730E-01  0.2074E-01
     -5.797  0.9929E-01  0.2705E-01
     -5.734  0.1047E+00  0.3371E-01
     -5.670  0.1075E+00  0.4054E-01
     -5.606  0.1174E+00  0.4801E-01
     -5.543  0.1364E+00  0.5668E-01
     -5.479  0.1433E+00  0.6579E-01
     -5.416  0.1332E+00  0.7426E-01
     -5.352  0.1321E+00  0.8266E-01
     -5.289  0.1581E+00  0.9271E-01
     -5.225  0.1787E+00  0.1041E+00
     -5.161  0.1751E+00  0.1152E+00
     -5.098  0.1649E+00  0.1257E+00
     -5.034  0.1723E+00  0.1366E+00
     -4.971  0.1841E+00  0.1483E+00
     -4.907  0.1855E+00  0.1601E+00
     -4.844  0.1998E+00  0.1728E+00
     -4.780  0.2283E+00  0.1874E+00
     -4.716  0.2335E+00  0.2022E+00
     -4.653  0.2127E+00  0.2157E+00
     -4.589  0.1984E+00  0.2283E+00
     -4.526  0.2062E+00  0.2414E+00
     -4.462  0.2405E+00  0.2567E+00
     -4.399  0.2849E+00  0.2748E+00
     -4.335  0.2898E+00  0.2933E+00
     -4.271  0.2594E+00  0.3098E+00
     -4.208  0.2623E+00  0.3264E+00
     -4.144  0.2905E+00  0.3449E+00
     -4.081  0.2968E+00  0.3638E+00
     -4.017  0.3054E+00  0.3832E+00
     -3.954  0.3340E+00  0.4044E+00
     -3.890  0.3684E+00  0.4278E+00
     -3.826  0.4194E+00  0.4545E+00
     -3.763  0.4516E+00  0.4832E+00
     -3.699  0.3949E+00  0.5083E+00
     -3.636  0.3127E+00  0.5282E+00
     -3.572  0.3307E+00  0.5492E+00
     -3.509  0.3750E+00  0.5731E+00
     -3.445  0.3325E+00  0.5942E+00
     -3.381  0.2933E+00  0.6128E+00
     -3.318  0.3095E+00  0.6325E+00
     -3.254  0.3379E+00  0.6540E+00
     -3.191  0.3715E+00  0.6776E+00
     -3.127  0.3625E+00  0.7006E+00
     -3.064  0.2906E+00  0.7191E+00
     -3.000  0.2096E+00  0.7324E+00
     -2.936  0.1712E+00  0.7433E+00
     -2.873  0.1719E+00  0.7543E+00
     -2.809  0.2098E+00  0.7676E+00
     -2.746  0.2854E+00  0.7857E+00
     -2.682  0.3250E+00  0.8064E+00
     -2.619  0.2862E+00  0.8246E+00
     -2.555  0.2201E+00  0.8386E+00
     -2.491  0.1511E+00  0.8482E+00
     -2.428  0.9832E-01  0.8544E+00
     -2.364  0.7827E-01  0.8594E+00
     -2.301  0.7825E-01  0.8644E+00
     -2.237  0.8668E-01  0.8699E+00
     -2.174  0.9466E-01  0.8759E+00
     -2.110  0.1038E+00  0.8825E+00
     -2.046  0.1161E+00  0.8899E+00
     -1.983  0.1169E+00  0.8973E+00
     -1.919  0.9371E-01  0.9033E+00
     -1.856  0.6481E-01  0.9074E+00
     -1.792  0.5157E-01  0.9107E+00
     -1.729  0.5014E-01  0.9139E+00
     -1.665  0.5644E-01  0.9175E+00
     -1.601  0.6569E-01  0.9216E+00
     -1.538  0.9963E-01  0.9280E+00
     -1.474  0.2226E+00  0.9421E+00
     -1.411  0.3850E+00  0.9666E+00
     -1.347  0.3977E+00  0.9919E+00
     -1.283  0.2914E+00  0.1010E+01
     -1.220  0.2671E+00  0.1027E+01
     -1.156  0.3739E+00  0.1051E+01
     -1.093  0.5285E+00  0.1085E+01
     -1.029  0.6075E+00  0.1123E+01
     -0.966  0.5917E+00  0.1161E+01
     -0.902  0.5096E+00  0.1193E+01
     -0.838  0.4049E+00  0.1219E+01
     -0.775  0.4146E+00  0.1245E+01
     -0.711  0.4803E+00  0.1276E+01
     -0.648  0.4023E+00  0.1302E+01
     -0.584  0.2329E+00  0.1316E+01
     -0.521  0.1778E+00  0.1328E+01
     -0.457  0.2512E+00  0.1344E+01
     -0.393  0.3187E+00  0.1364E+01
     -0.330  0.2835E+00  0.1382E+01
     -0.266  0.1995E+00  0.1395E+01
     -0.203  0.1493E+00  0.1404E+01
     -0.139  0.1552E+00  0.1414E+01
     -0.076  0.2507E+00  0.1430E+01
     -0.012  0.3409E+00  0.1452E+01
      0.052  0.2886E+00  0.1470E+01
      0.115  0.1654E+00  0.1480E+01
      0.179  0.9193E-01  0.1486E+01
      0.242  0.8795E-01  0.1492E+01
      0.306  0.1360E+00  0.1501E+01
      0.369  0.2124E+00  0.1514E+01
      0.433  0.2355E+00  0.1529E+01
      0.497  0.1647E+00  0.1540E+01
      0.560  0.1081E+00  0.1546E+01
      0.624  0.9348E-01  0.1552E+01
      0.687  0.8319E-01  0.1558E+01
      0.751  0.1124E+00  0.1565E+01
      0.814  0.1927E+00  0.1577E+01
      0.878  0.2265E+00  0.1591E+01
      0.942  0.1572E+00  0.1601E+01
      1.005  0.7726E-01  0.1606E+01
      1.069  0.4879E-01  0.1609E+01
      1.132  0.5283E-01  0.1613E+01
      1.196  0.6918E-01  0.1617E+01
      1.259  0.1115E+00  0.1624E+01
      1.323  0.2010E+00  0.1637E+01
      1.387  0.2749E+00  0.1655E+01
      1.450  0.3153E+00  0.1675E+01
      1.514  0.3902E+00  0.1699E+01
      1.577  0.4670E+00  0.1729E+01
      1.641  0.4784E+00  0.1759E+01
      1.704  0.4554E+00  0.1788E+01
      1.768  0.4908E+00  0.1820E+01
      1.832  0.5734E+00  0.1856E+01
      1.895  0.5847E+00  0.1893E+01
      1.959  0.5044E+00  0.1925E+01
      2.022  0.4177E+00  0.1952E+01
      2.086  0.3713E+00  0.1975E+01
      2.149  0.4000E+00  0.2001E+01
      2.213  0.4772E+00  0.2031E+01
      2.277  0.5145E+00  0.2064E+01
      2.340  0.5120E+00  0.2096E+01
      2.404  0.5243E+00  0.2130E+01
      2.467  0.5285E+00  0.2163E+01
      2.531  0.5155E+00  0.2196E+01
      2.594  0.5014E+00  0.2228E+01
      2.658  0.4818E+00  0.2259E+01
      2.722  0.5168E+00  0.2292E+01
      2.785  0.6115E+00  0.2330E+01
      2.849  0.6894E+00  0.2374E+01
      2.912  0.7167E+00  0.2420E+01
      2.976  0.6943E+00  0.2464E+01
      3.039  0.6776E+00  0.2507E+01
      3.103  0.6725E+00  0.2550E+01
      3.167  0.6390E+00  0.2590E+01
      3.230  0.5918E+00  0.2628E+01
      3.294  0.5887E+00  0.2665E+01
      3.357  0.6692E+00  0.2708E+01
      3.421  0.7398E+00  0.2755E+01
      3.484  0.6743E+00  0.2798E+01
      3.548  0.5416E+00  0.2832E+01
      3.612  0.4964E+00  0.2864E+01
      3.675  0.5679E+00  0.2900E+01
      3.739  0.6387E+00  0.2941E+01
      3.802  0.6483E+00  0.2982E+01
      3.866  0.6006E+00  0.3020E+01
      3.930  0.5419E+00  0.3054E+01
      3.993  0.5180E+00  0.3087E+01
      4.057  0.4949E+00  0.3119E+01
      4.120  0.5174E+00  0.3152E+01
      4.184  0.6035E+00  0.3190E+01
      4.247  0.6191E+00  0.3229E+01
      4.311  0.5254E+00  0.3263E+01
      4.375  0.4289E+00  0.3290E+01
      4.438  0.4013E+00  0.3316E+01
      4.502  0.4448E+00  0.3344E+01
      4.565  0.4773E+00  0.3374E+01
      4.629  0.4005E+00  0.3400E+01
      4.692  0.2863E+00  0.3418E+01
      4.756  0.2367E+00  0.3433E+01
      4.820  0.2318E+00  0.3448E+01
      4.883  0.2256E+00  0.3462E+01
      4.947  0.2315E+00  0.3477E+01
      5.010  0.2269E+00  0.3491E+01
      5.074  0.1780E+00  0.3503E+01
      5.137  0.1418E+00  0.3512E+01
      5.201  0.1359E+00  0.3520E+01
      5.265  0.1201E+00  0.3528E+01
      5.328  0.1062E+00  0.3535E+01
      5.392  0.1048E+00  0.3541E+01
      5.455  0.9230E-01  0.3547E+01
      5.519  0.6427E-01  0.3551E+01
      5.582  0.3723E-01  0.3554E+01
      5.646  0.2005E-01  0.3555E+01
      5.710  0.8875E-02  0.3555E+01
      5.773  0.2386E-02  0.3556E+01
      5.837  0.3313E-03  0.3556E+01
      5.900  0.2260E-04  0.3556E+01
      5.964  0.1577E-05  0.3556E+01
      6.027  0.2535E-04  0.3556E+01
      6.091  0.3655E-03  0.3556E+01
      6.155  0.2555E-02  0.3556E+01
      6.218  0.8972E-02  0.3556E+01
      6.282  0.1784E-01  0.3557E+01
      6.345  0.3075E-01  0.3559E+01
      6.409  0.6681E-01  0.3564E+01
      6.472  0.1194E+00  0.3571E+01
      6.536  0.1410E+00  0.3580E+01
      6.600  0.1379E+00  0.3589E+01
      6.663  0.1524E+00  0.3599E+01
      6.727  0.1782E+00  0.3610E+01
      6.790  0.1897E+00  0.3622E+01
      6.854  0.1792E+00  0.3633E+01
      6.917  0.1929E+00  0.3646E+01
      6.981  0.2689E+00  0.3663E+01
      7.045  0.3232E+00  0.3683E+01
      7.108  0.3102E+00  0.3703E+01
      7.172  0.2772E+00  0.3721E+01
      7.235  0.2823E+00  0.3739E+01
      7.299  0.3628E+00  0.3762E+01
      7.362  0.4319E+00  0.3789E+01
      7.426  0.4217E+00  0.3816E+01
      7.490  0.3957E+00  0.3841E+01
      7.553  0.4210E+00  0.3868E+01
      7.617  0.4757E+00  0.3898E+01
      7.680  0.5368E+00  0.3932E+01
      7.744  0.6277E+00  0.3972E+01
      7.807  0.7059E+00  0.4017E+01
      7.871  0.7378E+00  0.4064E+01
      7.935  0.7678E+00  0.4113E+01
      7.998  0.7590E+00  0.4161E+01
      8.062  0.6552E+00  0.4203E+01
      8.125  0.5754E+00  0.4239E+01
      8.189  0.6103E+00  0.4278E+01
      8.252  0.6466E+00  0.4319E+01
      8.316  0.5674E+00  0.4355E+01
      8.380  0.4686E+00  0.4385E+01
      8.443  0.4761E+00  0.4415E+01
      8.507  0.5252E+00  0.4449E+01
      8.570  0.5432E+00  0.4483E+01
      8.634  0.5463E+00  0.4518E+01
      8.697  0.5347E+00  0.4552E+01
      8.761  0.5013E+00  0.4584E+01
      8.825  0.5663E+00  0.4620E+01
      8.888  0.8038E+00  0.4671E+01
      8.952  0.1005E+01  0.4735E+01
      9.015  0.9607E+00  0.4796E+01
      9.079  0.7875E+00  0.4846E+01
      9.142  0.6794E+00  0.4889E+01
      9.206  0.6658E+00  0.4931E+01
      9.270  0.7129E+00  0.4977E+01
      9.333  0.7670E+00  0.5026E+01
      9.397  0.7756E+00  0.5075E+01
      9.460  0.7219E+00  0.5121E+01
      9.524  0.6268E+00  0.5161E+01
      9.588  0.5653E+00  0.5197E+01
      9.651  0.5525E+00  0.5232E+01
      9.715  0.5178E+00  0.5265E+01
      9.778  0.4553E+00  0.5293E+01
      9.842  0.3964E+00  0.5319E+01
      9.905  0.3871E+00  0.5343E+01
      9.969  0.4222E+00  0.5370E+01
     10.033  0.4424E+00  0.5398E+01
     10.096  0.4162E+00  0.5425E+01
     10.160  0.3812E+00  0.5449E+01
     10.223  0.3964E+00  0.5474E+01
     10.287  0.3978E+00  0.5499E+01
     10.350  0.3010E+00  0.5519E+01
     10.414  0.1887E+00  0.5531E+01
     10.478  0.1224E+00  0.5538E+01
     10.541  0.8607E-01  0.5544E+01
     10.605  0.6202E-01  0.5548E+01
     10.668  0.4230E-01  0.5550E+01
     10.732  0.2837E-01  0.5552E+01
     10.795  0.2032E-01  0.5554E+01
     10.859  0.1600E-01  0.5555E+01
     10.923  0.1017E-01  0.5555E+01
     10.986  0.4114E-02  0.5555E+01
     11.050  0.9376E-03  0.5556E+01
     11.113  0.1098E-03  0.5556E+01
     11.177  0.6229E-05  0.5556E+01
     11.240  0.1656E-06  0.5556E+01
     11.304  0.2029E-08  0.5556E+01
     11.368  0.1135E-10  0.5556E+01
     11.431  0.2882E-13  0.5556E+01
     11.495  0.3324E-16  0.5556E+01
     11.558  0.0000E+00  0.5556E+01
     11.622  0.0000E+00  0.5556E+01
     11.685  0.0000E+00  0.5556E+01
     11.749  0.0000E+00  0.5556E+01
     11.813  0.0000E+00  0.5556E+01
     11.876  0.0000E+00  0.5556E+01
