       N       E                     dE             d eps       ncg     rms          rms(c)
DAV:   1     0.392999642201E+02    0.39300E+02   -0.88794E+03  2800   0.668E+02
DAV:   2    -0.407399628317E+02   -0.80040E+02   -0.76936E+02  3590   0.120E+02
DAV:   3    -0.440359133184E+02   -0.32960E+01   -0.32705E+01  3730   0.236E+01    0.104E+01
DAV:   4    -0.435782809282E+02    0.45763E+00   -0.55213E-01  3635   0.362E+00    0.602E+00
DAV:   5    -0.433473621136E+02    0.23092E+00   -0.48245E-01  3305   0.277E+00    0.425E-01
DAV:   6    -0.433524354914E+02   -0.50734E-02   -0.19327E-02  3635   0.632E-01    0.232E-01
DAV:   7    -0.433544751813E+02   -0.20397E-02   -0.41280E-03  3165   0.274E-01    0.110E-01
DAV:   8    -0.433545226973E+02   -0.47516E-04   -0.13820E-04  2845   0.582E-02
   1 F= -.43354523E+02 E0= -.43354523E+02  d E =-.433545E+02
       N       E                     dE             d eps       ncg     rms          rms(c)
DAV:   1    -0.433674938440E+02   -0.13019E-01   -0.29405E+00  3200   0.676E+00
DAV:   2    -0.433742225471E+02   -0.67287E-02   -0.67287E-02  3600   0.112E+00
DAV:   3    -0.433742849306E+02   -0.62384E-04   -0.62384E-04  3525   0.128E-01    0.197E+00
DAV:   4    -0.433096981799E+02    0.64587E-01   -0.31131E-02  2935   0.626E-01    0.983E-01
DAV:   5    -0.432775915180E+02    0.32107E-01   -0.47562E-02  3270   0.786E-01    0.308E-01
DAV:   6    -0.432773994296E+02    0.19209E-03   -0.24084E-03  3330   0.226E-01    0.115E-01
DAV:   7    -0.432773302132E+02    0.69216E-04   -0.25699E-04  3155   0.588E-02
   2 F= -.43277330E+02 E0= -.43277330E+02  d E =0.771925E-01
       N       E                     dE             d eps       ncg     rms          rms(c)
DAV:   1    -0.434160684783E+02   -0.13867E+00   -0.14997E+00  3205   0.495E+00
DAV:   2    -0.434202295503E+02   -0.41611E-02   -0.41611E-02  3565   0.825E-01
DAV:   3    -0.434202567496E+02   -0.27199E-04   -0.27199E-04  3375   0.872E-02    0.141E+00
DAV:   4    -0.433879314108E+02    0.32325E-01   -0.15478E-02  2855   0.447E-01    0.689E-01
DAV:   5    -0.433720599606E+02    0.15871E-01   -0.23217E-02  3195   0.556E-01    0.239E-01
DAV:   6    -0.433720458945E+02    0.14066E-04   -0.11991E-03  3380   0.163E-01    0.944E-02
DAV:   7    -0.433719792142E+02    0.66680E-04   -0.10119E-04  2030   0.388E-02
   3 F= -.43371979E+02 E0= -.43371979E+02  d E =-.174565E-01
