 vasp.5.4.1 05Feb16 (build Feb 24 2020 14:33:01) complex                        
  
 executed on           IFC91_ompi date 2020.02.27  22:03:50
 running on   40 total cores
 distrk:  each k-point on   40 cores,    1 groups
 distr:  one band on NCORES_PER_BAND=   8 cores,    5 groups


--------------------------------------------------------------------------------------------------------


 INCAR:
 POTCAR:    PAW_PBE Si 05Jan2001                  
 POTCAR:    PAW_PBE Si 05Jan2001                  
   VRHFIN =Si: s2p2                                                             
   LEXCH  = PE                                                                  
   EATOM  =   103.0669 eV,    7.5752 Ry                                         
                                                                                
   TITEL  = PAW_PBE Si 05Jan2001                                                
   LULTRA =        F    use ultrasoft PP ?                                      
   IUNSCR =        1    unscreen: 0-lin 1-nonlin 2-no                           
   RPACOR =    1.500    partial core radius                                     
   POMASS =   28.085; ZVAL   =    4.000    mass and valenz                      
   RCORE  =    1.900    outmost cutoff radius                                   
   RWIGS  =    2.480; RWIGS  =    1.312    wigner-seitz radius (au A)           
   ENMAX  =  245.345; ENMIN  =  184.009 eV                                      
   ICORE  =        2    local potential                                         
   LCOR   =        T    correct aug charges                                     
   LPAW   =        T    paw PP                                                  
   EAUG   =  322.069                                                            
   DEXC   =    0.000                                                            
   RMAX   =    1.950    core radius for proj-oper                               
   RAUG   =    1.300    factor for augmentation sphere                          
   RDEP   =    1.993    radius for radial grids                                 
   RDEPT  =    1.837    core radius for aug-charge                              
                                                                                
   Atomic configuration                                                         
    6 entries                                                                   
     n  l   j            E        occ.                                          
     1  0  0.50     -1785.8828   2.0000                                         
     2  0  0.50      -139.4969   2.0000                                         
     2  1  1.50       -95.5546   6.0000                                         
     3  0  0.50       -10.8127   2.0000                                         
     3  1  0.50        -4.0811   2.0000                                         
     3  2  1.50        -4.0817   0.0000                                         
   Description                                                                  
     l       E           TYP  RCUT    TYP  RCUT                                 
     0    -10.8127223     23  1.900                                             
     0     -7.6451159     23  1.900                                             
     1     -4.0811372     23  1.900                                             
     1      2.4879257     23  1.900                                             
     2     -4.0817478      7  1.900                                             
  local pseudopotential read in
  partial core-charges read in
  partial kinetic energy density read in
  atomic valenz-charges read in
  non local Contribution for L=           0  read in
    real space projection operators read in
  non local Contribution for L=           0  read in
    real space projection operators read in
  non local Contribution for L=           1  read in
    real space projection operators read in
  non local Contribution for L=           1  read in
    real space projection operators read in
    PAW grid and wavefunctions read in
 
   number of l-projection  operators is LMAX  =           4
   number of lm-projection operators is LMMAX =           8
 
  PAW_PBE Si 05Jan2001                  :
 energy of atom  1       EATOM= -103.0669
 kinetic energy error for atom=    0.0021 (will be added to EATOM!!)
 
 
 POSCAR: Si dia                                  
  positions in direct lattice
  No initial velocities read in
 exchange correlation table for  LEXCH =        8
   RHO(1)=    0.500       N(1)  =     2000
   RHO(2)=  100.500       N(2)  =     4000
 


--------------------------------------------------------------------------------------------------------


 ion  position               nearest neighbor table
   1  0.000  0.000  0.000-   5 2.35   6 2.35   7 2.35   8 2.35
   2  0.000  0.500  0.500-   5 2.35   6 2.35   7 2.35   8 2.35
   3  0.500  0.000  0.500-   5 2.35   6 2.35   7 2.35   8 2.35
   4  0.500  0.500  0.000-   5 2.35   6 2.35   7 2.35   8 2.35
   5  0.250  0.250  0.250-   1 2.35   2 2.35   3 2.35   4 2.35
   6  0.750  0.750  0.250-   1 2.35   2 2.35   3 2.35   4 2.35
   7  0.750  0.250  0.750-   1 2.35   2 2.35   3 2.35   4 2.35
   8  0.250  0.750  0.750-   1 2.35   2 2.35   3 2.35   4 2.35
 
  LATTYP: Found a simple cubic cell.
 ALAT       =     5.4310000000
  
  Lattice vectors:
  
 A1 = (   5.4310000000,   0.0000000000,   0.0000000000)
 A2 = (   0.0000000000,   5.4310000000,   0.0000000000)
 A3 = (   0.0000000000,   0.0000000000,   5.4310000000)


Analysis of symmetry for initial positions (statically):
=====================================================================
 Subroutine PRICEL returns following result:
 
  LATTYP: Found a face centered cubic cell.
 ALAT       =     5.4310000000
  
  Lattice vectors:
  
 A1 = (   2.7155000000,   2.7155000000,   0.0000000000)
 A2 = (   2.7155000000,   0.0000000000,  -2.7155000000)
 A3 = (   0.0000000000,   2.7155000000,  -2.7155000000)
 
   4 primitive cells build up your supercell.
 

 Routine SETGRP: Setting up the symmetry group for a 
 simple cubic supercell.


 Subroutine GETGRP returns: Found 48 space group operations
 (whereof 24 operations were pure point group operations)
 out of a pool of 48 trial point group operations.


The static configuration has the point symmetry T_d .
 The point group associated with its full space group is O_h .


Analysis of symmetry for dynamics (positions and initial velocities):
=====================================================================
 Subroutine PRICEL returns following result:
 
  LATTYP: Found a face centered cubic cell.
 ALAT       =     5.4310000000
  
  Lattice vectors:
  
 A1 = (   2.7155000000,   2.7155000000,   0.0000000000)
 A2 = (   2.7155000000,   0.0000000000,  -2.7155000000)
 A3 = (   0.0000000000,   2.7155000000,  -2.7155000000)
 
   4 primitive cells build up your supercell.
 

 Routine SETGRP: Setting up the symmetry group for a 
 simple cubic supercell.


 Subroutine GETGRP returns: Found 48 space group operations
 (whereof 24 operations were pure point group operations)
 out of a pool of 48 trial point group operations.


The dynamic configuration has the point symmetry T_d .
 The point group associated with its full space group is O_h .


 Subroutine INISYM returns: Found 48 space group operations
 (whereof 24 operations are pure point group operations),
 and found     4 'primitive' translations

 
 
 KPOINTS: k-points                                

Automatic generation of k-mesh.
Space group operators:
 irot       det(A)        alpha          n_x          n_y          n_z        tau_x        tau_y        tau_z
    1     1.000000     0.000001     1.000000     0.000000     0.000000     0.000000     0.000000     0.000000
    2     1.000000   120.000000    -0.577350    -0.577350    -0.577350     0.000000     0.000000     0.000000
    3     1.000000   120.000000     0.577350     0.577350     0.577350     0.000000     0.000000     0.000000
    4    -1.000000    90.000000     0.000000     0.000000    -1.000000     0.000000     0.000000     0.000000
    5    -1.000000   180.000000     0.000000     0.707107     0.707107     0.000000     0.000000     0.000000
    6    -1.000000    90.000000     0.000000     1.000000     0.000000     0.000000     0.000000     0.000000
    7     1.000000   180.000000     0.000000     0.000000     1.000000     0.000000     0.000000     0.000000
    8     1.000000   120.000000    -0.577350     0.577350     0.577350     0.000000     0.000000     0.000000
    9     1.000000   120.000000    -0.577350     0.577350    -0.577350     0.000000     0.000000     0.000000
   10    -1.000000    90.000000     0.000000     0.000000     1.000000     0.000000     0.000000     0.000000
   11    -1.000000    90.000000    -1.000000     0.000000     0.000000     0.000000     0.000000     0.000000
   12    -1.000000   180.000000     0.707107     0.000000     0.707107     0.000000     0.000000     0.000000
   13     1.000000   120.000000     0.577350    -0.577350     0.577350     0.000000     0.000000     0.000000
   14     1.000000   120.000000    -0.577350    -0.577350     0.577350     0.000000     0.000000     0.000000
   15     1.000000   180.000000     1.000000     0.000000     0.000000     0.000000     0.000000     0.000000
   16    -1.000000    90.000000     0.000000    -1.000000     0.000000     0.000000     0.000000     0.000000
   17    -1.000000   180.000000     0.707107     0.707107     0.000000     0.000000     0.000000     0.000000
   18    -1.000000    90.000000     1.000000     0.000000     0.000000     0.000000     0.000000     0.000000
   19     1.000000   120.000000     0.577350    -0.577350    -0.577350     0.000000     0.000000     0.000000
   20     1.000000   180.000000     0.000000     1.000000     0.000000     0.000000     0.000000     0.000000
   21     1.000000   120.000000     0.577350     0.577350    -0.577350     0.000000     0.000000     0.000000
   22    -1.000000   180.000000     0.000000    -0.707107     0.707107     0.000000     0.000000     0.000000
   23    -1.000000   180.000000     0.707107    -0.707107     0.000000     0.000000     0.000000     0.000000
   24    -1.000000   180.000000     0.707107     0.000000    -0.707107     0.000000     0.000000     0.000000
   25    -1.000000     0.000001     1.000000     0.000000     0.000000     0.750000     0.750000    -0.750000
   26    -1.000000   120.000000    -0.577350    -0.577350    -0.577350     0.750000     0.750000    -0.750000
   27    -1.000000   120.000000     0.577350     0.577350     0.577350     0.750000     0.750000    -0.750000
   28     1.000000    90.000000     0.000000     0.000000    -1.000000     0.750000     0.750000    -0.750000
   29     1.000000   180.000000     0.000000     0.707107     0.707107     0.750000     0.750000    -0.750000
   30     1.000000    90.000000     0.000000     1.000000     0.000000     0.750000     0.750000    -0.750000
   31    -1.000000   180.000000     0.000000     0.000000     1.000000     0.750000     0.750000    -0.750000
   32    -1.000000   120.000000    -0.577350     0.577350     0.577350     0.750000     0.750000    -0.750000
   33    -1.000000   120.000000    -0.577350     0.577350    -0.577350     0.750000     0.750000    -0.750000
   34     1.000000    90.000000     0.000000     0.000000     1.000000     0.750000     0.750000    -0.750000
   35     1.000000    90.000000    -1.000000     0.000000     0.000000     0.750000     0.750000    -0.750000
   36     1.000000   180.000000     0.707107     0.000000     0.707107     0.750000     0.750000    -0.750000
   37    -1.000000   120.000000     0.577350    -0.577350     0.577350     0.750000     0.750000    -0.750000
   38    -1.000000   120.000000    -0.577350    -0.577350     0.577350     0.750000     0.750000    -0.750000
   39    -1.000000   180.000000     1.000000     0.000000     0.000000     0.750000     0.750000    -0.750000
   40     1.000000    90.000000     0.000000    -1.000000     0.000000     0.750000     0.750000    -0.750000
   41     1.000000   180.000000     0.707107     0.707107     0.000000     0.750000     0.750000    -0.750000
   42     1.000000    90.000000     1.000000     0.000000     0.000000     0.750000     0.750000    -0.750000
   43    -1.000000   120.000000     0.577350    -0.577350    -0.577350     0.750000     0.750000    -0.750000
   44    -1.000000   180.000000     0.000000     1.000000     0.000000     0.750000     0.750000    -0.750000
   45    -1.000000   120.000000     0.577350     0.577350    -0.577350     0.750000     0.750000    -0.750000
   46     1.000000   180.000000     0.000000    -0.707107     0.707107     0.750000     0.750000    -0.750000
   47     1.000000   180.000000     0.707107    -0.707107     0.000000     0.750000     0.750000    -0.750000
   48     1.000000   180.000000     0.707107     0.000000    -0.707107     0.750000     0.750000    -0.750000
 
 Subroutine IBZKPT returns following result:
 ===========================================
 
 Found     56 irreducible k-points:
 
 Following reciprocal coordinates:
            Coordinates               Weight
  0.000000  0.000000  0.000000      1.000000
  0.090909  0.000000  0.000000      6.000000
  0.181818  0.000000  0.000000      6.000000
  0.272727  0.000000  0.000000      6.000000
  0.363636  0.000000  0.000000      6.000000
  0.454545  0.000000  0.000000      6.000000
  0.090909  0.090909  0.000000     12.000000
  0.181818  0.090909  0.000000     24.000000
  0.272727  0.090909  0.000000     24.000000
  0.363636  0.090909  0.000000     24.000000
  0.454545  0.090909  0.000000     24.000000
  0.181818  0.181818  0.000000     12.000000
  0.272727  0.181818  0.000000     24.000000
  0.363636  0.181818  0.000000     24.000000
  0.454545  0.181818  0.000000     24.000000
  0.272727  0.272727  0.000000     12.000000
  0.363636  0.272727  0.000000     24.000000
  0.454545  0.272727  0.000000     24.000000
  0.363636  0.363636  0.000000     12.000000
  0.454545  0.363636  0.000000     24.000000
  0.454545  0.454545  0.000000     12.000000
  0.090909  0.090909  0.090909      8.000000
  0.181818  0.090909  0.090909     24.000000
  0.272727  0.090909  0.090909     24.000000
  0.363636  0.090909  0.090909     24.000000
  0.454545  0.090909  0.090909     24.000000
  0.181818  0.181818  0.090909     24.000000
  0.272727  0.181818  0.090909     48.000000
  0.363636  0.181818  0.090909     48.000000
  0.454545  0.181818  0.090909     48.000000
  0.272727  0.272727  0.090909     24.000000
  0.363636  0.272727  0.090909     48.000000
  0.454545  0.272727  0.090909     48.000000
  0.363636  0.363636  0.090909     24.000000
  0.454545  0.363636  0.090909     48.000000
  0.454545  0.454545  0.090909     24.000000
  0.181818  0.181818  0.181818      8.000000
  0.272727  0.181818  0.181818     24.000000
  0.363636  0.181818  0.181818     24.000000
  0.454545  0.181818  0.181818     24.000000
  0.272727  0.272727  0.181818     24.000000
  0.363636  0.272727  0.181818     48.000000
  0.454545  0.272727  0.181818     48.000000
  0.363636  0.363636  0.181818     24.000000
  0.454545  0.363636  0.181818     48.000000
  0.454545  0.454545  0.181818     24.000000
  0.272727  0.272727  0.272727      8.000000
  0.363636  0.272727  0.272727     24.000000
  0.454545  0.272727  0.272727     24.000000
  0.363636  0.363636  0.272727     24.000000
  0.454545  0.363636  0.272727     48.000000
  0.454545  0.454545  0.272727     24.000000
  0.363636  0.363636  0.363636      8.000000
  0.454545  0.363636  0.363636     24.000000
  0.454545  0.454545  0.363636     24.000000
  0.454545  0.454545  0.454545      8.000000
 
 Following cartesian coordinates:
            Coordinates               Weight
  0.000000  0.000000  0.000000      1.000000
  0.090909  0.000000  0.000000      6.000000
  0.181818  0.000000  0.000000      6.000000
  0.272727  0.000000  0.000000      6.000000
  0.363636  0.000000  0.000000      6.000000
  0.454545  0.000000  0.000000      6.000000
  0.090909  0.090909  0.000000     12.000000
  0.181818  0.090909  0.000000     24.000000
  0.272727  0.090909  0.000000     24.000000
  0.363636  0.090909  0.000000     24.000000
  0.454545  0.090909  0.000000     24.000000
  0.181818  0.181818  0.000000     12.000000
  0.272727  0.181818  0.000000     24.000000
  0.363636  0.181818  0.000000     24.000000
  0.454545  0.181818  0.000000     24.000000
  0.272727  0.272727  0.000000     12.000000
  0.363636  0.272727  0.000000     24.000000
  0.454545  0.272727  0.000000     24.000000
  0.363636  0.363636  0.000000     12.000000
  0.454545  0.363636  0.000000     24.000000
  0.454545  0.454545  0.000000     12.000000
  0.090909  0.090909  0.090909      8.000000
  0.181818  0.090909  0.090909     24.000000
  0.272727  0.090909  0.090909     24.000000
  0.363636  0.090909  0.090909     24.000000
  0.454545  0.090909  0.090909     24.000000
  0.181818  0.181818  0.090909     24.000000
  0.272727  0.181818  0.090909     48.000000
  0.363636  0.181818  0.090909     48.000000
  0.454545  0.181818  0.090909     48.000000
  0.272727  0.272727  0.090909     24.000000
  0.363636  0.272727  0.090909     48.000000
  0.454545  0.272727  0.090909     48.000000
  0.363636  0.363636  0.090909     24.000000
  0.454545  0.363636  0.090909     48.000000
  0.454545  0.454545  0.090909     24.000000
  0.181818  0.181818  0.181818      8.000000
  0.272727  0.181818  0.181818     24.000000
  0.363636  0.181818  0.181818     24.000000
  0.454545  0.181818  0.181818     24.000000
  0.272727  0.272727  0.181818     24.000000
  0.363636  0.272727  0.181818     48.000000
  0.454545  0.272727  0.181818     48.000000
  0.363636  0.363636  0.181818     24.000000
  0.454545  0.363636  0.181818     48.000000
  0.454545  0.454545  0.181818     24.000000
  0.272727  0.272727  0.272727      8.000000
  0.363636  0.272727  0.272727     24.000000
  0.454545  0.272727  0.272727     24.000000
  0.363636  0.363636  0.272727     24.000000
  0.454545  0.363636  0.272727     48.000000
  0.454545  0.454545  0.272727     24.000000
  0.363636  0.363636  0.363636      8.000000
  0.454545  0.363636  0.363636     24.000000
  0.454545  0.454545  0.363636     24.000000
  0.454545  0.454545  0.454545      8.000000
 


--------------------------------------------------------------------------------------------------------




 Dimension of arrays:
   k-points           NKPTS =     56   k-points in BZ     NKDIM =     56   number of bands    NBANDS=     25
   number of dos      NEDOS =    301   number of ions     NIONS =      8
   non local maximal  LDIM  =      4   non local SUM 2l+1 LMDIM =      8
   total plane-waves  NPLWV =  32768
   max r-space proj   IRMAX =      1   max aug-charges    IRDMAX=   7038
   dimension x,y,z NGX =    32 NGY =   32 NGZ =   32
   dimension x,y,z NGXF=    64 NGYF=   64 NGZF=   64
   support grid    NGXF=    64 NGYF=   64 NGZF=   64
   ions per type =               8
 NGX,Y,Z   is equivalent  to a cutoff of   9.80,  9.80,  9.80 a.u.
 NGXF,Y,Z  is equivalent  to a cutoff of  19.59, 19.59, 19.59 a.u.


 I would recommend the setting:
   dimension x,y,z NGX =    31 NGY =   31 NGZ =   31
 SYSTEM =  diamond Si                              
 POSCAR =  Si dia                                  

 Startparameter for this run:
   NWRITE =      2    write-flag & timer
   PREC   = accura    normal or accurate (medium, high low for compatibility)
   ISTART =      0    job   : 0-new  1-cont  2-samecut
   ICHARG =      2    charge: 1-file 2-atom 10-const
   ISPIN  =      1    spin polarized calculation?
   LNONCOLLINEAR =      F non collinear calculations
   LSORBIT =      F    spin-orbit coupling
   INIWAV =      1    electr: 0-lowe 1-rand  2-diag
   LASPH  =      F    aspherical Exc in radial PAW
   METAGGA=      F    non-selfconsistent MetaGGA calc.

 Electronic Relaxation 1
   ENCUT  =  300.0 eV  22.05 Ry    4.70 a.u.   7.67  7.67  7.67*2*pi/ulx,y,z
   ENINI  =  300.0     initial cutoff
   ENAUG  =  322.1 eV  augmentation charge cutoff
   NELM   =     60;   NELMIN=  0; NELMDL=  3     # of ELM steps 
   EDIFF  = 0.1E-03   stopping-criterion for ELM
   LREAL  =      F    real-space projection
   NLSPLINE    = F    spline interpolate recip. space projectors
   LCOMPAT=      F    compatible to vasp.4.4
   GGA_COMPAT  = T    GGA compatible to vasp.4.4-vasp.4.6
   LMAXPAW     = -100 max onsite density
   LMAXMIX     =    2 max onsite mixed and CHGCAR
   VOSKOWN=      0    Vosko Wilk Nusair interpolation
   ROPT   =    0.00000
 Ionic relaxation
   EDIFFG = -.1E-01   stopping-criterion for IOM
   NSW    =      9    number of steps for IOM
   NBLOCK =      1;   KBLOCK =      9    inner block; outer block 
   IBRION =      2    ionic relax: 0-MD 1-quasi-New 2-CG
   NFREE  =      1    steps in history (QN), initial steepest desc. (CG)
   ISIF   =      3    stress and relaxation
   IWAVPR =     11    prediction:  0-non 1-charg 2-wave 3-comb
   ISYM   =      2    0-nonsym 1-usesym 2-fastsym
   LCORR  =      T    Harris-Foulkes like correction to forces

   POTIM  = 1.0000    time-step for ionic-motion
   TEIN   =    0.0    initial temperature
   TEBEG  =    0.0;   TEEND  =   0.0 temperature during run
   SMASS  =  -3.00    Nose mass-parameter (am)
   estimated Nose-frequenzy (Omega)   =  0.10E-29 period in steps =****** mass=  -0.674E-27a.u.
   SCALEE = 1.0000    scale energy and forces
   NPACO  =    256;   APACO  = 16.0  distance and # of slots for P.C.
   PSTRESS=    0.0 pullay stress

  Mass of Ions in am
   POMASS =  28.09
  Ionic Valenz
   ZVAL   =   4.00
  Atomic Wigner-Seitz radii
   RWIGS  =  -1.00
  virtual crystal weights 
   VCA    =   1.00
   NELECT =      32.0000    total number of electrons
   NUPDOWN=      -1.0000    fix difference up-down

 DOS related values:
   EMIN   =  10.00;   EMAX   =-10.00  energy-range for DOS
   EFERMI =   0.00
   ISMEAR =     0;   SIGMA  =   0.10  broadening in eV -4-tet -1-fermi 0-gaus

 Electronic relaxation 2 (details)
   IALGO  =     38    algorithm
   LDIAG  =      T    sub-space diagonalisation (order eigenvalues)
   LSUBROT=      F    optimize rotation matrix (better conditioning)
   TURBO    =      0    0=normal 1=particle mesh
   IRESTART =      0    0=no restart 2=restart with 2 vectors
   NREBOOT  =      0    no. of reboots
   NMIN     =      0    reboot dimension
   EREF     =   0.00    reference energy to select bands
   IMIX   =      4    mixing-type and parameters
     AMIX     =   0.40;   BMIX     =  1.00
     AMIX_MAG =   1.60;   BMIX_MAG =  1.00
     AMIN     =   0.10
     WC   =   100.;   INIMIX=   1;  MIXPRE=   1;  MAXMIX= -45

 Intra band minimization:
   WEIMIN = 0.0010     energy-eigenvalue tresh-hold
   EBREAK =  0.10E-05  absolut break condition
   DEPER  =   0.30     relativ break condition  

   TIME   =   0.40     timestep for ELM

  volume/ion in A,a.u.               =      20.02       135.13
  Fermi-wavevector in a.u.,A,eV,Ry     =   0.956999  1.808467 12.460868  0.915848
  Thomas-Fermi vector in A             =   2.085978
 
 Write flags
   LWAVE  =      T    write WAVECAR
   LCHARG =      T    write CHGCAR
   LVTOT  =      F    write LOCPOT, total local potential
   LVHAR  =      F    write LOCPOT, Hartree potential only
   LELF   =      F    write electronic localiz. function (ELF)
   LORBIT =      0    0 simple, 1 ext, 2 COOP (PROOUT)


 Dipole corrections
   LMONO  =      F    monopole corrections only (constant potential shift)
   LDIPOL =      F    correct potential (dipole corrections)
   IDIPOL =      0    1-x, 2-y, 3-z, 4-all directions 
   EPSILON=  1.0000000 bulk dielectric constant

 Exchange correlation treatment:
   GGA     =    --    GGA type
   LEXCH   =     8    internal setting for exchange type
   VOSKOWN=      0    Vosko Wilk Nusair interpolation
   LHFCALC =     F    Hartree Fock is set to
   LHFONE  =     F    Hartree Fock one center treatment
   AEXX    =    0.0000 exact exchange contribution

 Linear response parameters
   LEPSILON=     F    determine dielectric tensor
   LRPA    =     F    only Hartree local field effects (RPA)
   LNABLA  =     F    use nabla operator in PAW spheres
   LVEL    =     F    velocity operator in full k-point grid
   LINTERFAST=   F  fast interpolation
   KINTER  =     0    interpolate to denser k-point grid
   CSHIFT  =0.1000    complex shift for real part using Kramers Kronig
   OMEGAMAX=  -1.0    maximum frequency
   DEG_THRESHOLD= 0.2000000E-02 threshold for treating states as degnerate
   RTIME   =    0.100 relaxation time in fs

 Orbital magnetization related:
   ORBITALMAG=     F  switch on orbital magnetization
   LCHIMAG   =     F  perturbation theory with respect to B field
   DQ        =  0.001000  dq finite difference perturbation B field



--------------------------------------------------------------------------------------------------------


 conjugate gradient relaxation of ions
 charge density and potential will be updated during run
 non-spin polarized calculation
 Variant of blocked Davidson
 Davidson routine will perform the subspace rotation
 perform sub-space diagonalisation
    after iterative eigenvector-optimisation
 modified Broyden-mixing scheme, WC =      100.0
 initial mixing is a Kerker type mixing with AMIX =  0.4000 and BMIX =      1.0000
 Hartree-type preconditioning will be used
 using additional bands            9
 reciprocal scheme for non local part
 use partial core corrections
 calculate Harris-corrections to forces 
   (improved forces if not selfconsistent)
 use gradient corrections 
 use of overlap-Matrix (Vanderbilt PP)
 Gauss-broadening in eV      SIGMA  =   0.10


--------------------------------------------------------------------------------------------------------


  energy-cutoff  :      300.00
  volume of cell :      160.19
      direct lattice vectors                 reciprocal lattice vectors
     5.431000000  0.000000000  0.000000000     0.184128153  0.000000000  0.000000000
     0.000000000  5.431000000  0.000000000     0.000000000  0.184128153  0.000000000
     0.000000000  0.000000000  5.431000000     0.000000000  0.000000000  0.184128153

  length of vectors
     5.431000000  5.431000000  5.431000000     0.184128153  0.184128153  0.184128153


 
 k-points in units of 2pi/SCALE and weight: k-points                                
   0.00000000  0.00000000  0.00000000       0.001
   0.09090909  0.00000000  0.00000000       0.005
   0.18181818  0.00000000  0.00000000       0.005
   0.27272727  0.00000000  0.00000000       0.005
   0.36363636  0.00000000  0.00000000       0.005
   0.45454545  0.00000000  0.00000000       0.005
   0.09090909  0.09090909  0.00000000       0.009
   0.18181818  0.09090909  0.00000000       0.018
   0.27272727  0.09090909  0.00000000       0.018
   0.36363636  0.09090909  0.00000000       0.018
   0.45454545  0.09090909  0.00000000       0.018
   0.18181818  0.18181818  0.00000000       0.009
   0.27272727  0.18181818  0.00000000       0.018
   0.36363636  0.18181818  0.00000000       0.018
   0.45454545  0.18181818  0.00000000       0.018
   0.27272727  0.27272727  0.00000000       0.009
   0.36363636  0.27272727  0.00000000       0.018
   0.45454545  0.27272727  0.00000000       0.018
   0.36363636  0.36363636  0.00000000       0.009
   0.45454545  0.36363636  0.00000000       0.018
   0.45454545  0.45454545  0.00000000       0.009
   0.09090909  0.09090909  0.09090909       0.006
   0.18181818  0.09090909  0.09090909       0.018
   0.27272727  0.09090909  0.09090909       0.018
   0.36363636  0.09090909  0.09090909       0.018
   0.45454545  0.09090909  0.09090909       0.018
   0.18181818  0.18181818  0.09090909       0.018
   0.27272727  0.18181818  0.09090909       0.036
   0.36363636  0.18181818  0.09090909       0.036
   0.45454545  0.18181818  0.09090909       0.036
   0.27272727  0.27272727  0.09090909       0.018
   0.36363636  0.27272727  0.09090909       0.036
   0.45454545  0.27272727  0.09090909       0.036
   0.36363636  0.36363636  0.09090909       0.018
   0.45454545  0.36363636  0.09090909       0.036
   0.45454545  0.45454545  0.09090909       0.018
   0.18181818  0.18181818  0.18181818       0.006
   0.27272727  0.18181818  0.18181818       0.018
   0.36363636  0.18181818  0.18181818       0.018
   0.45454545  0.18181818  0.18181818       0.018
   0.27272727  0.27272727  0.18181818       0.018
   0.36363636  0.27272727  0.18181818       0.036
   0.45454545  0.27272727  0.18181818       0.036
   0.36363636  0.36363636  0.18181818       0.018
   0.45454545  0.36363636  0.18181818       0.036
   0.45454545  0.45454545  0.18181818       0.018
   0.27272727  0.27272727  0.27272727       0.006
   0.36363636  0.27272727  0.27272727       0.018
   0.45454545  0.27272727  0.27272727       0.018
   0.36363636  0.36363636  0.27272727       0.018
   0.45454545  0.36363636  0.27272727       0.036
   0.45454545  0.45454545  0.27272727       0.018
   0.36363636  0.36363636  0.36363636       0.006
   0.45454545  0.36363636  0.36363636       0.018
   0.45454545  0.45454545  0.36363636       0.018
   0.45454545  0.45454545  0.45454545       0.006
 
 k-points in reciprocal lattice and weights: k-points                                
   0.00000000  0.00000000  0.00000000       0.001
   0.09090909  0.00000000  0.00000000       0.005
   0.18181818  0.00000000  0.00000000       0.005
   0.27272727  0.00000000  0.00000000       0.005
   0.36363636  0.00000000  0.00000000       0.005
   0.45454545  0.00000000  0.00000000       0.005
   0.09090909  0.09090909  0.00000000       0.009
   0.18181818  0.09090909  0.00000000       0.018
   0.27272727  0.09090909  0.00000000       0.018
   0.36363636  0.09090909  0.00000000       0.018
   0.45454545  0.09090909  0.00000000       0.018
   0.18181818  0.18181818  0.00000000       0.009
   0.27272727  0.18181818  0.00000000       0.018
   0.36363636  0.18181818  0.00000000       0.018
   0.45454545  0.18181818  0.00000000       0.018
   0.27272727  0.27272727  0.00000000       0.009
   0.36363636  0.27272727  0.00000000       0.018
   0.45454545  0.27272727  0.00000000       0.018
   0.36363636  0.36363636  0.00000000       0.009
   0.45454545  0.36363636  0.00000000       0.018
   0.45454545  0.45454545  0.00000000       0.009
   0.09090909  0.09090909  0.09090909       0.006
   0.18181818  0.09090909  0.09090909       0.018
   0.27272727  0.09090909  0.09090909       0.018
   0.36363636  0.09090909  0.09090909       0.018
   0.45454545  0.09090909  0.09090909       0.018
   0.18181818  0.18181818  0.09090909       0.018
   0.27272727  0.18181818  0.09090909       0.036
   0.36363636  0.18181818  0.09090909       0.036
   0.45454545  0.18181818  0.09090909       0.036
   0.27272727  0.27272727  0.09090909       0.018
   0.36363636  0.27272727  0.09090909       0.036
   0.45454545  0.27272727  0.09090909       0.036
   0.36363636  0.36363636  0.09090909       0.018
   0.45454545  0.36363636  0.09090909       0.036
   0.45454545  0.45454545  0.09090909       0.018
   0.18181818  0.18181818  0.18181818       0.006
   0.27272727  0.18181818  0.18181818       0.018
   0.36363636  0.18181818  0.18181818       0.018
   0.45454545  0.18181818  0.18181818       0.018
   0.27272727  0.27272727  0.18181818       0.018
   0.36363636  0.27272727  0.18181818       0.036
   0.45454545  0.27272727  0.18181818       0.036
   0.36363636  0.36363636  0.18181818       0.018
   0.45454545  0.36363636  0.18181818       0.036
   0.45454545  0.45454545  0.18181818       0.018
   0.27272727  0.27272727  0.27272727       0.006
   0.36363636  0.27272727  0.27272727       0.018
   0.45454545  0.27272727  0.27272727       0.018
   0.36363636  0.36363636  0.27272727       0.018
   0.45454545  0.36363636  0.27272727       0.036
   0.45454545  0.45454545  0.27272727       0.018
   0.36363636  0.36363636  0.36363636       0.006
   0.45454545  0.36363636  0.36363636       0.018
   0.45454545  0.45454545  0.36363636       0.018
   0.45454545  0.45454545  0.45454545       0.006
 
 position of ions in fractional coordinates (direct lattice) 
   0.00000000  0.00000000  0.00000000
   0.00000000  0.50000000  0.50000000
   0.50000000  0.00000000  0.50000000
   0.50000000  0.50000000  0.00000000
   0.25000000  0.25000000  0.25000000
   0.75000000  0.75000000  0.25000000
   0.75000000  0.25000000  0.75000000
   0.25000000  0.75000000  0.75000000
 
 position of ions in cartesian coordinates  (Angst):
   0.00000000  0.00000000  0.00000000
   0.00000000  2.71550000  2.71550000
   2.71550000  0.00000000  2.71550000
   2.71550000  2.71550000  0.00000000
   1.35775000  1.35775000  1.35775000
   4.07325000  4.07325000  1.35775000
   4.07325000  1.35775000  4.07325000
   1.35775000  4.07325000  4.07325000
 


--------------------------------------------------------------------------------------------------------


 k-point  1 :   0.0000 0.0000 0.0000  plane waves:    1863
 k-point  2 :   0.0909 0.0000 0.0000  plane waves:    1895
 k-point  3 :   0.1818 0.0000 0.0000  plane waves:    1883
 k-point  4 :   0.2727 0.0000 0.0000  plane waves:    1899
 k-point  5 :   0.3636 0.0000 0.0000  plane waves:    1900
 k-point  6 :   0.4545 0.0000 0.0000  plane waves:    1896
 k-point  7 :   0.0909 0.0909 0.0000  plane waves:    1891
 k-point  8 :   0.1818 0.0909 0.0000  plane waves:    1878
 k-point  9 :   0.2727 0.0909 0.0000  plane waves:    1903
 k-point 10 :   0.3636 0.0909 0.0000  plane waves:    1896
 k-point 11 :   0.4545 0.0909 0.0000  plane waves:    1887
 k-point 12 :   0.1818 0.1818 0.0000  plane waves:    1889
 k-point 13 :   0.2727 0.1818 0.0000  plane waves:    1893
 k-point 14 :   0.3636 0.1818 0.0000  plane waves:    1890
 k-point 15 :   0.4545 0.1818 0.0000  plane waves:    1886
 k-point 16 :   0.2727 0.2727 0.0000  plane waves:    1885
 k-point 17 :   0.3636 0.2727 0.0000  plane waves:    1895
 k-point 18 :   0.4545 0.2727 0.0000  plane waves:    1897
 k-point 19 :   0.3636 0.3636 0.0000  plane waves:    1895
 k-point 20 :   0.4545 0.3636 0.0000  plane waves:    1896
 k-point 21 :   0.4545 0.4545 0.0000  plane waves:    1908
 k-point 22 :   0.0909 0.0909 0.0909  plane waves:    1893
 k-point 23 :   0.1818 0.0909 0.0909  plane waves:    1890
 k-point 24 :   0.2727 0.0909 0.0909  plane waves:    1891
 k-point 25 :   0.3636 0.0909 0.0909  plane waves:    1891
 k-point 26 :   0.4545 0.0909 0.0909  plane waves:    1890
 k-point 27 :   0.1818 0.1818 0.0909  plane waves:    1894
 k-point 28 :   0.2727 0.1818 0.0909  plane waves:    1899
 k-point 29 :   0.3636 0.1818 0.0909  plane waves:    1898
 k-point 30 :   0.4545 0.1818 0.0909  plane waves:    1895
 k-point 31 :   0.2727 0.2727 0.0909  plane waves:    1890
 k-point 32 :   0.3636 0.2727 0.0909  plane waves:    1885
 k-point 33 :   0.4545 0.2727 0.0909  plane waves:    1893
 k-point 34 :   0.3636 0.3636 0.0909  plane waves:    1895
 k-point 35 :   0.4545 0.3636 0.0909  plane waves:    1896
 k-point 36 :   0.4545 0.4545 0.0909  plane waves:    1893
 k-point 37 :   0.1818 0.1818 0.1818  plane waves:    1893
 k-point 38 :   0.2727 0.1818 0.1818  plane waves:    1892
 k-point 39 :   0.3636 0.1818 0.1818  plane waves:    1889
 k-point 40 :   0.4545 0.1818 0.1818  plane waves:    1896
 k-point 41 :   0.2727 0.2727 0.1818  plane waves:    1885
 k-point 42 :   0.3636 0.2727 0.1818  plane waves:    1885
 k-point 43 :   0.4545 0.2727 0.1818  plane waves:    1886
 k-point 44 :   0.3636 0.3636 0.1818  plane waves:    1889
 k-point 45 :   0.4545 0.3636 0.1818  plane waves:    1890
 k-point 46 :   0.4545 0.4545 0.1818  plane waves:    1884
 k-point 47 :   0.2727 0.2727 0.2727  plane waves:    1890
 k-point 48 :   0.3636 0.2727 0.2727  plane waves:    1888
 k-point 49 :   0.4545 0.2727 0.2727  plane waves:    1891
 k-point 50 :   0.3636 0.3636 0.2727  plane waves:    1885
 k-point 51 :   0.4545 0.3636 0.2727  plane waves:    1881
 k-point 52 :   0.4545 0.4545 0.2727  plane waves:    1877
 k-point 53 :   0.3636 0.3636 0.3636  plane waves:    1875
 k-point 54 :   0.4545 0.3636 0.3636  plane waves:    1882
 k-point 55 :   0.4545 0.4545 0.3636  plane waves:    1885
 k-point 56 :   0.4545 0.4545 0.4545  plane waves:    1880

 maximum and minimum number of plane-waves per node :       255      214

 maximum number of plane-waves:      1908
 maximum index in each direction: 
   IXMAX=    7   IYMAX=    7   IZMAX=    7
   IXMIN=   -8   IYMIN=   -8   IZMIN=   -8

 NGX is ok and might be reduce to  32
 NGY is ok and might be reduce to  32
 NGZ is ok and might be reduce to  32

 total amount of memory used by VASP on root node    32980. kBytes
========================================================================

   base      :      30000. kBytes
   nonl-proj :        946. kBytes
   fftplans  :        356. kBytes
   grid      :        488. kBytes
   one-center:          3. kBytes
   wavefun   :       1187. kBytes
 
     INWAV:  cpu time    0.0000: real time    0.0000
 Broyden mixing: mesh for mixing (old mesh)
   NGX = 15   NGY = 15   NGZ = 15
  (NGX  = 64   NGY  = 64   NGZ  = 64)
  gives a total of   3375 points

 initial charge density was supplied:
 charge density of overlapping atoms calculated
 number of electron      32.0000000 magnetization 
 keeping initial charge density in first step


--------------------------------------------------------------------------------------------------------


 Maximum index for augmentation-charges          187 (set IRDMAX)


--------------------------------------------------------------------------------------------------------


 First call to EWALD:  gamma=   0.326
 Maximum number of real-space cells 3x 3x 3
 Maximum number of reciprocal cells 3x 3x 3

 FEWALD executed in parallel
    FEWALD:  cpu time    0.0012: real time    0.0012


----------------------------------------- Iteration    1(   1)  ---------------------------------------


    POTLOK:  cpu time    0.0200: real time    0.0540
    SETDIJ:  cpu time    0.0014: real time    0.0015
     EDDAV:  cpu time    0.6558: real time    0.7808
       DOS:  cpu time    0.0014: real time    0.0015
    --------------------------------------------
      LOOP:  cpu time    0.6800: real time    0.8405

 eigenvalue-minimisations  :  2800
 total energy-change (2. order) : 0.3929996E+02  (-0.8879423E+03)
 number of electron      32.0000000 magnetization 
 augmentation part       32.0000000 magnetization 

 Free energy of the ion-electron system (eV)
  ---------------------------------------------------
  alpha Z        PSCENC =        13.44915721
  Ewald energy   TEWEN  =      -914.08579262
  -Hartree energ DENC   =       -44.03749844
  -exchange      EXHF   =         0.00000000
  -V(xc)+E(xc)   XCENC  =       -74.41615190
  PAW double counting   =       704.99039692     -564.24414232
  entropy T*S    EENTRO =        -0.00893169
  eigenvalues    EBANDS =        93.13418357
  atomic energy  EATOM  =       824.51874349
  Solvation  Ediel_sol  =         0.00000000
  ---------------------------------------------------
  free energy    TOTEN  =        39.29996422 eV

  energy without entropy =       39.30889591  energy(sigma->0) =       39.30443006


--------------------------------------------------------------------------------------------------------




----------------------------------------- Iteration    1(   2)  ---------------------------------------


     EDDAV:  cpu time    0.5042: real time    0.5303
       DOS:  cpu time    0.0009: real time    0.0009
    --------------------------------------------
      LOOP:  cpu time    0.5055: real time    0.5445

 eigenvalue-minimisations  :  3590
 total energy-change (2. order) :-0.8003993E+02  (-0.7693586E+02)
 number of electron      32.0000000 magnetization 
 augmentation part       32.0000000 magnetization 

 Free energy of the ion-electron system (eV)
  ---------------------------------------------------
  alpha Z        PSCENC =        13.44915721
  Ewald energy   TEWEN  =      -914.08579262
  -Hartree energ DENC   =       -44.03749844
  -exchange      EXHF   =         0.00000000
  -V(xc)+E(xc)   XCENC  =       -74.41615190
  PAW double counting   =       704.99039692     -564.24414232
  entropy T*S    EENTRO =        -0.00000001
  eigenvalues    EBANDS =        13.08532484
  atomic energy  EATOM  =       824.51874349
  Solvation  Ediel_sol  =         0.00000000
  ---------------------------------------------------
  free energy    TOTEN  =       -40.73996283 eV

  energy without entropy =      -40.73996282  energy(sigma->0) =      -40.73996283


--------------------------------------------------------------------------------------------------------




----------------------------------------- Iteration    1(   3)  ---------------------------------------


     EDDAV:  cpu time    0.5266: real time    0.5289
       DOS:  cpu time    0.0008: real time    0.0008
    CHARGE:  cpu time    0.0243: real time    0.0483
    MIXING:  cpu time    0.0010: real time    0.0012
    --------------------------------------------
      LOOP:  cpu time    0.5531: real time    0.5824

 eigenvalue-minimisations  :  3730
 total energy-change (2. order) :-0.3295950E+01  (-0.3270464E+01)
 number of electron      32.0000015 magnetization 
 augmentation part       -1.8774983 magnetization 

 Broyden mixing:
  rms(total) = 0.10445E+01    rms(broyden)= 0.10445E+01
  rms(prec ) = 0.14029E+01
  weight for this iteration     100.00

 Free energy of the ion-electron system (eV)
  ---------------------------------------------------
  alpha Z        PSCENC =        13.44915721
  Ewald energy   TEWEN  =      -914.08579262
  -Hartree energ DENC   =       -44.03749844
  -exchange      EXHF   =         0.00000000
  -V(xc)+E(xc)   XCENC  =       -74.41615190
  PAW double counting   =       704.99039692     -564.24414232
  entropy T*S    EENTRO =        -0.00000000
  eigenvalues    EBANDS =         9.78937434
  atomic energy  EATOM  =       824.51874349
  Solvation  Ediel_sol  =         0.00000000
  ---------------------------------------------------
  free energy    TOTEN  =       -44.03591332 eV

  energy without entropy =      -44.03591332  energy(sigma->0) =      -44.03591332


--------------------------------------------------------------------------------------------------------




----------------------------------------- Iteration    1(   4)  ---------------------------------------


    POTLOK:  cpu time    0.0045: real time    0.0045
    SETDIJ:  cpu time    0.0021: real time    0.0021
     EDDAV:  cpu time    0.5057: real time    0.5073
       DOS:  cpu time    0.0009: real time    0.0009
    CHARGE:  cpu time    0.0237: real time    0.0237
    MIXING:  cpu time    0.0007: real time    0.0008
    --------------------------------------------
      LOOP:  cpu time    0.5380: real time    0.5432

 eigenvalue-minimisations  :  3635
 total energy-change (2. order) : 0.4576324E+00  (-0.5521269E-01)
 number of electron      32.0000015 magnetization 
 augmentation part       -1.8584450 magnetization 

 Broyden mixing:
  rms(total) = 0.60250E+00    rms(broyden)= 0.60250E+00
  rms(prec ) = 0.82134E+00
  weight for this iteration     100.00

 eigenvalues of (default mixing * dielectric matrix)
  average eigenvalue GAMMA=   2.3344
  2.3344

 Free energy of the ion-electron system (eV)
  ---------------------------------------------------
  alpha Z        PSCENC =        13.44915721
  Ewald energy   TEWEN  =      -914.08579262
  -Hartree energ DENC   =       -49.95232293
  -exchange      EXHF   =         0.00000000
  -V(xc)+E(xc)   XCENC  =       -73.46683331
  PAW double counting   =      1621.50668481    -1481.20390183
  entropy T*S    EENTRO =        -0.00000000
  eigenvalues    EBANDS =        15.65598426
  atomic energy  EATOM  =       824.51874349
  Solvation  Ediel_sol  =         0.00000000
  ---------------------------------------------------
  free energy    TOTEN  =       -43.57828093 eV

  energy without entropy =      -43.57828093  energy(sigma->0) =      -43.57828093


--------------------------------------------------------------------------------------------------------




----------------------------------------- Iteration    1(   5)  ---------------------------------------


    POTLOK:  cpu time    0.0044: real time    0.0044
    SETDIJ:  cpu time    0.0012: real time    0.0012
     EDDAV:  cpu time    0.4733: real time    0.4750
       DOS:  cpu time    0.0010: real time    0.0010
    CHARGE:  cpu time    0.0232: real time    0.0233
    MIXING:  cpu time    0.0006: real time    0.0006
    --------------------------------------------
      LOOP:  cpu time    0.5042: real time    0.5087

 eigenvalue-minimisations  :  3305
 total energy-change (2. order) : 0.2309188E+00  (-0.4824465E-01)
 number of electron      32.0000014 magnetization 
 augmentation part       -1.8312861 magnetization 

 Broyden mixing:
  rms(total) = 0.42478E-01    rms(broyden)= 0.42478E-01
  rms(prec ) = 0.60167E-01
  weight for this iteration     100.00

 eigenvalues of (default mixing * dielectric matrix)
  average eigenvalue GAMMA=   1.7976
  1.0751  2.5201

 Free energy of the ion-electron system (eV)
  ---------------------------------------------------
  alpha Z        PSCENC =        13.44915721
  Ewald energy   TEWEN  =      -914.08579262
  -Hartree energ DENC   =       -59.51097319
  -exchange      EXHF   =         0.00000000
  -V(xc)+E(xc)   XCENC  =       -71.92295616
  PAW double counting   =      3602.41390480    -3462.67582105
  entropy T*S    EENTRO =        -0.00000024
  eigenvalues    EBANDS =        24.46637567
  atomic energy  EATOM  =       824.51874349
  Solvation  Ediel_sol  =         0.00000000
  ---------------------------------------------------
  free energy    TOTEN  =       -43.34736211 eV

  energy without entropy =      -43.34736187  energy(sigma->0) =      -43.34736199


--------------------------------------------------------------------------------------------------------




----------------------------------------- Iteration    1(   6)  ---------------------------------------


    POTLOK:  cpu time    0.0044: real time    0.0044
    SETDIJ:  cpu time    0.0020: real time    0.0020
     EDDAV:  cpu time    0.5069: real time    0.5088
       DOS:  cpu time    0.0010: real time    0.0010
    CHARGE:  cpu time    0.0252: real time    0.0253
    MIXING:  cpu time    0.0006: real time    0.0006
    --------------------------------------------
      LOOP:  cpu time    0.5405: real time    0.5453

 eigenvalue-minimisations  :  3635
 total energy-change (2. order) :-0.5073378E-02  (-0.1932731E-02)
 number of electron      32.0000014 magnetization 
 augmentation part       -1.8322784 magnetization 

 Broyden mixing:
  rms(total) = 0.23186E-01    rms(broyden)= 0.23186E-01
  rms(prec ) = 0.34030E-01
  weight for this iteration     100.00

 eigenvalues of (default mixing * dielectric matrix)
  average eigenvalue GAMMA=   1.9985
  2.5696  2.5696  0.8562

 Free energy of the ion-electron system (eV)
  ---------------------------------------------------
  alpha Z        PSCENC =        13.44915721
  Ewald energy   TEWEN  =      -914.08579262
  -Hartree energ DENC   =       -59.69080328
  -exchange      EXHF   =         0.00000000
  -V(xc)+E(xc)   XCENC  =       -71.86915572
  PAW double counting   =      3695.70588841    -3555.92643326
  entropy T*S    EENTRO =        -0.00000020
  eigenvalues    EBANDS =        24.54596048
  atomic energy  EATOM  =       824.51874349
  Solvation  Ediel_sol  =         0.00000000
  ---------------------------------------------------
  free energy    TOTEN  =       -43.35243549 eV

  energy without entropy =      -43.35243529  energy(sigma->0) =      -43.35243539


--------------------------------------------------------------------------------------------------------




----------------------------------------- Iteration    1(   7)  ---------------------------------------


    POTLOK:  cpu time    0.0043: real time    0.0043
    SETDIJ:  cpu time    0.0012: real time    0.0012
     EDDAV:  cpu time    0.4770: real time    0.4786
       DOS:  cpu time    0.0010: real time    0.0010
    CHARGE:  cpu time    0.0238: real time    0.0240
    MIXING:  cpu time    0.0006: real time    0.0006
    --------------------------------------------
      LOOP:  cpu time    0.5084: real time    0.5138

 eigenvalue-minimisations  :  3165
 total energy-change (2. order) :-0.2039690E-02  (-0.4128029E-03)
 number of electron      32.0000014 magnetization 
 augmentation part       -1.8347970 magnetization 

 Broyden mixing:
  rms(total) = 0.11014E-01    rms(broyden)= 0.11014E-01
  rms(prec ) = 0.13040E-01
  weight for this iteration     100.00

 eigenvalues of (default mixing * dielectric matrix)
  average eigenvalue GAMMA=   1.7271
  2.4739  2.4739  0.9803  0.9803

 Free energy of the ion-electron system (eV)
  ---------------------------------------------------
  alpha Z        PSCENC =        13.44915721
  Ewald energy   TEWEN  =      -914.08579262
  -Hartree energ DENC   =       -59.51444706
  -exchange      EXHF   =         0.00000000
  -V(xc)+E(xc)   XCENC  =       -71.86870054
  PAW double counting   =      3672.61282274    -3532.75922612
  entropy T*S    EENTRO =        -0.00000012
  eigenvalues    EBANDS =        24.29296784
  atomic energy  EATOM  =       824.51874349
  Solvation  Ediel_sol  =         0.00000000
  ---------------------------------------------------
  free energy    TOTEN  =       -43.35447518 eV

  energy without entropy =      -43.35447506  energy(sigma->0) =      -43.35447512


--------------------------------------------------------------------------------------------------------




----------------------------------------- Iteration    1(   8)  ---------------------------------------


    POTLOK:  cpu time    0.0051: real time    0.0059
    SETDIJ:  cpu time    0.0020: real time    0.0020
     EDDAV:  cpu time    0.5187: real time    0.6126
       DOS:  cpu time    0.0010: real time    0.0010
    --------------------------------------------
      LOOP:  cpu time    0.5271: real time    0.6248

 eigenvalue-minimisations  :  2845
 total energy-change (2. order) :-0.4751602E-04  (-0.1382036E-04)
 number of electron      32.0000014 magnetization 
 augmentation part       -1.8347970 magnetization 

 Free energy of the ion-electron system (eV)
  ---------------------------------------------------
  alpha Z        PSCENC =        13.44915721
  Ewald energy   TEWEN  =      -914.08579262
  -Hartree energ DENC   =       -59.62575627
  -exchange      EXHF   =         0.00000000
  -V(xc)+E(xc)   XCENC  =       -71.85536747
  PAW double counting   =      3661.85239355    -3522.00850834
  entropy T*S    EENTRO =        -0.00000013
  eigenvalues    EBANDS =        24.40060787
  atomic energy  EATOM  =       824.51874349
  Solvation  Ediel_sol  =         0.00000000
  ---------------------------------------------------
  free energy    TOTEN  =       -43.35452270 eV

  energy without entropy =      -43.35452257  energy(sigma->0) =      -43.35452263


--------------------------------------------------------------------------------------------------------




 average (electrostatic) potential at core
  the test charge radii are     0.9892
  (the norm of the test charge is              1.0000)
       1 -83.2549       2 -83.2549       3 -83.2549       4 -83.2549       5 -83.2549
       6 -83.2549       7 -83.2549       8 -83.2549
 
 
 
 E-fermi :   6.1092     XC(G=0):  -9.4117     alpha+bet :-11.9779


 k-point     1 :       0.0000    0.0000    0.0000
  band No.  band energies     occupation 
      1      -6.1340      2.00000
      2      -1.9899      2.00000
      3      -1.9899      2.00000
      4      -1.9899      2.00000
      5      -1.9899      2.00000
      6      -1.9899      2.00000
      7      -1.9899      2.00000
      8       2.9747      2.00000
      9       2.9747      2.00000
     10       2.9747      2.00000
     11       2.9747      2.00000
     12       2.9747      2.00000
     13       2.9747      2.00000
     14       5.8257      1.99994
     15       5.8257      1.99994
     16       5.8257      1.99994
     17       6.5369      0.00000
     18       6.5369      0.00000
     19       6.5369      0.00000
     20       6.5369      0.00000
     21       6.5369      0.00000
     22       6.5369      0.00000
     23       8.3948      0.00000
     24       8.3948      0.00000
     25       8.3948      0.00000

 k-point     2 :       0.0909    0.0000    0.0000
  band No.  band energies     occupation 
      1      -6.0979      2.00000
      2      -2.6707      2.00000
      3      -1.9780      2.00000
      4      -1.9780      2.00000
      5      -1.9780      2.00000
      6      -1.9780      2.00000
      7      -1.2661      2.00000
      8       2.8704      2.00000
      9       2.8704      2.00000
     10       2.8704      2.00000
     11       2.8704      2.00000
     12       3.0073      2.00000
     13       3.0073      2.00000
     14       5.5900      2.00000
     15       5.6771      2.00000
     16       5.6771      2.00000
     17       6.4228      0.00001
     18       6.7328      0.00000
     19       6.7328      0.00000
     20       6.7328      0.00000
     21       6.7328      0.00000
     22       6.7487      0.00000
     23       8.3051      0.00000
     24       8.5852      0.00000
     25       8.5852      0.00000

 k-point     3 :       0.1818    0.0000    0.0000
  band No.  band energies     occupation 
      1      -5.9895      2.00000
      2      -3.3019      2.00000
      3      -1.9451      2.00000
      4      -1.9451      2.00000
      5      -1.9451      2.00000
      6      -1.9451      2.00000
      7      -0.5065      2.00000
      8       2.6221      2.00000
      9       2.6221      2.00000
     10       2.6221      2.00000
     11       2.6221      2.00000
     12       3.1049      2.00000
     13       3.1049      2.00000
     14       5.0224      2.00000
     15       5.3292      2.00000
     16       5.3292      2.00000
     17       6.4018      0.00004
     18       7.0629      0.00000
     19       7.2571      0.00000
     20       7.2571      0.00000
     21       7.2571      0.00000
     22       7.2571      0.00000
     23       8.0718      0.00000
     24       9.0660      0.00000
     25       9.0660      0.00000

 k-point     4 :       0.2727    0.0000    0.0000
  band No.  band energies     occupation 
      1      -5.8094      2.00000
      2      -3.8783      2.00000
      3      -1.9002      2.00000
      4      -1.9002      2.00000
      5      -1.9002      2.00000
      6      -1.9002      2.00000
      7       0.2803      2.00000
      8       2.3430      2.00000
      9       2.3430      2.00000
     10       2.3430      2.00000
     11       2.3430      2.00000
     12       3.2665      2.00000
     13       3.2665      2.00000
     14       4.3039      2.00000
     15       4.9129      2.00000
     16       4.9129      2.00000
     17       6.4664      0.00000
     18       7.4820      0.00000
     19       7.7577      0.00000
     20       8.0001      0.00000
     21       8.0001      0.00000
     22       8.0001      0.00000
     23       8.0001      0.00000
     24       9.7030      0.00000
     25       9.7031      0.00000

 k-point     5 :       0.3636    0.0000    0.0000
  band No.  band energies     occupation 
      1      -5.5584      2.00000
      2      -4.3953      2.00000
      3      -1.8567      2.00000
      4      -1.8567      2.00000
      5      -1.8567      2.00000
      6      -1.8567      2.00000
      7       1.0857      2.00000
      8       2.1162      2.00000
      9       2.1162      2.00000
     10       2.1162      2.00000
     11       2.1162      2.00000
     12       3.4905      2.00000
     13       3.4905      2.00000
     14       3.5234      2.00000
     15       4.4968      2.00000
     16       4.4968      2.00000
     17       6.6109      0.00000
     18       7.4210      0.00000
     19       8.0054      0.00000
     20       8.8831      0.00000
     21       8.8831      0.00000
     22       8.8831      0.00000
     23       8.8831      0.00000
     24       9.9647      0.00000
     25      10.4232      0.00000

 k-point     6 :       0.4545    0.0000    0.0000
  band No.  band energies     occupation 
      1      -5.2379      2.00000
      2      -4.8494      2.00000
      3      -1.8297      2.00000
      4      -1.8297      2.00000
      5      -1.8297      2.00000
      6      -1.8297      2.00000
      7       1.9009      2.00000
      8       1.9908      2.00000
      9       1.9908      2.00000
     10       1.9908      2.00000
     11       1.9908      2.00000
     12       2.7169      2.00000
     13       3.7739      2.00000
     14       3.7739      2.00000
     15       4.1120      2.00000
     16       4.1120      2.00000
     17       6.8266      0.00000
     18       7.1020      0.00000
     19       8.6259      0.00000
     20       9.3098      0.00000
     21       9.8176      0.00000
     22       9.8176      0.00000
     23       9.8176      0.00000
     24       9.8176      0.00000
     25      11.1423      0.00000

 k-point     7 :       0.0909    0.0909    0.0000
  band No.  band energies     occupation 
      1      -6.0618      2.00000
      2      -2.6516      2.00000
      3      -2.6516      2.00000
      4      -2.0232      2.00000
      5      -1.9117      2.00000
      6      -1.2643      2.00000
      7      -1.2643      2.00000
      8       2.5630      2.00000
      9       2.8877      2.00000
     10       2.8877      2.00000
     11       2.9228      2.00000
     12       2.9228      2.00000
     13       3.0325      2.00000
     14       5.1934      2.00000
     15       5.5299      2.00000
     16       5.7918      1.99999
     17       6.6037      0.00000
     18       6.6274      0.00000
     19       6.6274      0.00000
     20       6.9341      0.00000
     21       6.9341      0.00000
     22       7.1920      0.00000
     23       8.4677      0.00000
     24       8.5311      0.00000
     25       8.6104      0.00000

 k-point     8 :       0.1818    0.0909    0.0000
  band No.  band energies     occupation 
      1      -5.9537      2.00000
      2      -3.2778      2.00000
      3      -2.5966      2.00000
      4      -2.0559      2.00000
      5      -1.8217      2.00000
      6      -1.2628      2.00000
      7      -0.5194      2.00000
      8       2.2240      2.00000
      9       2.6023      2.00000
     10       2.7238      2.00000
     11       2.9737      2.00000
     12       2.9863      2.00000
     13       3.0456      2.00000
     14       4.6174      2.00000
     15       5.1813      2.00000
     16       5.5890      2.00000
     17       6.6127      0.00000
     18       6.8649      0.00000
     19       7.1682      0.00000
     20       7.2361      0.00000
     21       7.4369      0.00000
     22       7.8738      0.00000
     23       8.2684      0.00000
     24       8.8812      0.00000
     25       8.9909      0.00000

 k-point     9 :       0.2727    0.0909    0.0000
  band No.  band energies     occupation 
      1      -5.7741      2.00000
      2      -3.8505      2.00000
      3      -2.5122      2.00000
      4      -2.0890      2.00000
      5      -1.7113      2.00000
      6      -1.2722      2.00000
      7       0.2461      2.00000
      8       1.9377      2.00000
      9       2.2729      2.00000
     10       2.5123      2.00000
     11       2.7966      2.00000
     12       3.1267      2.00000
     13       3.2392      2.00000
     14       3.9705      2.00000
     15       4.7630      2.00000
     16       5.1701      2.00000
     17       6.6819      0.00000
     18       7.4488      0.00000
     19       7.6413      0.00000
     20       7.9249      0.00000
     21       7.9622      0.00000
     22       8.1599      0.00000
     23       8.7035      0.00000
     24       9.3885      0.00000
     25       9.6361      0.00000

 k-point    10 :       0.3636    0.0909    0.0000
  band No.  band energies     occupation 
      1      -5.5238      2.00000
      2      -4.3650      2.00000
      3      -2.4092      2.00000
      4      -2.1365      2.00000
      5      -1.5896      2.00000
      6      -1.3057      2.00000
      7       1.0209      2.00000
      8       1.7548      2.00000
      9       1.9832      2.00000
     10       2.3662      2.00000
     11       2.5753      2.00000
     12       3.2775      2.00000
     13       3.3448      2.00000
     14       3.5037      2.00000
     15       4.3458      2.00000
     16       4.6934      2.00000
     17       6.8283      0.00000
     18       7.6319      0.00000
     19       8.1509      0.00000
     20       8.2472      0.00000
     21       8.8193      0.00000
     22       9.0246      0.00000
     23       9.6287      0.00000
     24       9.8590      0.00000
     25      10.3867      0.00000

 k-point    11 :       0.4545    0.0909    0.0000
  band No.  band energies     occupation 
      1      -5.2043      2.00000
      2      -4.8172      2.00000
      3      -2.3026      2.00000
      4      -2.2080      2.00000
      5      -1.4712      2.00000
      6      -1.3725      2.00000
      7       1.7016      2.00000
      8       1.7826      2.00000
      9       1.7927      2.00000
     10       2.3268      2.00000
     11       2.4031      2.00000
     12       2.5485      2.00000
     13       3.6247      2.00000
     14       3.8382      2.00000
     15       3.9611      2.00000
     16       4.2388      2.00000
     17       7.0439      0.00000
     18       7.3175      0.00000
     19       8.7561      0.00000
     20       9.1674      0.00000
     21       9.4170      0.00000
     22       9.7913      0.00000
     23       9.8210      0.00000
     24      10.4445      0.00000
     25      10.5278      0.00000

 k-point    12 :       0.1818    0.1818    0.0000
  band No.  band energies     occupation 
      1      -5.8464      2.00000
      2      -3.2071      2.00000
      3      -3.2071      2.00000
      4      -2.1665      2.00000
      5      -1.6774      2.00000
      6      -0.5621      2.00000
      7      -0.5621      2.00000
      8       1.8772      2.00000
      9       2.6608      2.00000
     10       2.6608      2.00000
     11       2.9112      2.00000
     12       2.9112      2.00000
     13       3.2038      2.00000
     14       4.0359      2.00000
     15       4.8295      2.00000
     16       5.6817      2.00000
     17       6.8025      0.00000
     18       7.1646      0.00000
     19       7.1646      0.00000
     20       7.7126      0.00000
     21       7.7126      0.00000
     22       8.6427      0.00000
     23       8.6905      0.00000
     24       8.7870      0.00000
     25       8.8613      0.00000

 k-point    13 :       0.2727    0.1818    0.0000
  band No.  band energies     occupation 
      1      -5.6682      2.00000
      2      -3.7686      2.00000
      3      -3.0943      2.00000
      4      -2.2905      2.00000
      5      -1.5099      2.00000
      6      -0.6434      2.00000
      7       0.1429      2.00000
      8       1.6336      2.00000
      9       2.2952      2.00000
     10       2.7864      2.00000
     11       2.7943      2.00000
     12       3.1866      2.00000
     13       3.2130      2.00000
     14       3.4251      2.00000
     15       4.4074      2.00000
     16       5.4463      2.00000
     17       7.1239      0.00000
     18       7.2403      0.00000
     19       7.9297      0.00000
     20       8.0884      0.00000
     21       8.4104      0.00000
     22       8.4763      0.00000
     23       9.0194      0.00000
     24       9.4573      0.00000
     25       9.5192      0.00000

 k-point    14 :       0.3636    0.1818    0.0000
  band No.  band energies     occupation 
      1      -5.4202      2.00000
      2      -4.2748      2.00000
      3      -2.9475      2.00000
      4      -2.4364      2.00000
      5      -1.3227      2.00000
      6      -0.7693      2.00000
      7       0.8384      2.00000
      8       1.5208      2.00000
      9       1.9590      2.00000
     10       2.7345      2.00000
     11       2.8024      2.00000
     12       2.9991      2.00000
     13       3.0781      2.00000
     14       3.5498      2.00000
     15       3.9878      2.00000
     16       5.0033      2.00000
     17       7.3886      0.00000
     18       7.7610      0.00000
     19       8.1666      0.00000
     20       8.5654      0.00000
     21       8.8285      0.00000
     22       9.2454      0.00000
     23       9.4667      0.00000
     24      10.2142      0.00000
     25      10.4567      0.00000

 k-point    15 :       0.4545    0.1818    0.0000
  band No.  band energies     occupation 
      1      -5.1038      2.00000
      2      -4.7211      2.00000
      3      -2.7785      2.00000
      4      -2.6028      2.00000
      5      -1.1258      2.00000
      6      -0.9351      2.00000
      7       1.5142      2.00000
      8       1.5459      2.00000
      9       1.6991      2.00000
     10       2.1674      2.00000
     11       2.7789      2.00000
     12       2.9076      2.00000
     13       3.2708      2.00000
     14       3.6035      2.00000
     15       3.9922      2.00000
     16       4.4915      2.00000
     17       7.6008      0.00000
     18       7.8660      0.00000
     19       8.6011      0.00000
     20       9.1321      0.00000
     21       9.5131      0.00000
     22       9.6850      0.00000
     23       9.8122      0.00000
     24      10.2900      0.00000
     25      10.3939      0.00000

 k-point    16 :       0.2727    0.2727    0.0000
  band No.  band energies     occupation 
      1      -5.4927      2.00000
      2      -3.6354      2.00000
      3      -3.6354      2.00000
      4      -2.5127      2.00000
      5      -1.2882      2.00000
      6      -0.0274      2.00000
      7      -0.0274      2.00000
      8       1.4595      2.00000
      9       2.4031      2.00000
     10       2.4031      2.00000
     11       2.8525      2.00000
     12       3.1652      2.00000
     13       3.1652      2.00000
     14       3.4798      2.00000
     15       3.9819      2.00000
     16       5.4677      2.00000
     17       7.1230      0.00000
     18       8.0085      0.00000
     19       8.0085      0.00000
     20       8.7558      0.00000
     21       8.7558      0.00000
     22       8.8878      0.00000
     23       9.0609      0.00000
     24       9.3113      0.00000
     25      10.4178      0.00000

 k-point    17 :       0.3636    0.2727    0.0000
  band No.  band energies     occupation 
      1      -5.2486      2.00000
      2      -4.1270      2.00000
      3      -3.4569      2.00000
      4      -2.7538      2.00000
      5      -1.0441      2.00000
      6      -0.2528      2.00000
      7       0.5683      2.00000
      8       1.4239      2.00000
      9       2.0339      2.00000
     10       2.2803      2.00000
     11       2.5905      2.00000
     12       3.2089      2.00000
     13       3.5381      2.00000
     14       3.5607      2.00000
     15       3.6369      2.00000
     16       5.1905      2.00000
     17       7.4961      0.00000
     18       8.1536      0.00000
     19       8.8803      0.00000
     20       8.9054      0.00000
     21       9.0497      0.00000
     22       9.1974      0.00000
     23       9.5354      0.00000
     24      10.0003      0.00000
     25      10.1456      0.00000

 k-point    18 :       0.4545    0.2727    0.0000
  band No.  band energies     occupation 
      1      -4.9377      2.00000
      2      -4.5627      2.00000
      3      -3.2416      2.00000
      4      -3.0021      2.00000
      5      -0.7816      2.00000
      6      -0.5118      2.00000
      7       1.1457      2.00000
      8       1.5197      2.00000
      9       1.7131      2.00000
     10       1.7302      2.00000
     11       2.8512      2.00000
     12       3.1781      2.00000
     13       3.3156      2.00000
     14       3.4492      2.00000
     15       4.1717      2.00000
     16       4.7176      2.00000
     17       8.1740      0.00000
     18       8.3570      0.00000
     19       8.6059      0.00000
     20       9.0397      0.00000
     21       9.4220      0.00000
     22       9.7096      0.00000
     23       9.8880      0.00000
     24       9.9660      0.00000
     25      10.3913      0.00000

 k-point    19 :       0.3636    0.3636    0.0000
  band No.  band energies     occupation 
      1      -5.0104      2.00000
      2      -3.9256      2.00000
      3      -3.9256      2.00000
      4      -3.0769      2.00000
      5      -0.7461      2.00000
      6       0.2478      2.00000
      7       0.2478      2.00000
      8       1.4586      2.00000
      9       1.7565      2.00000
     10       2.1986      2.00000
     11       2.1986      2.00000
     12       3.1404      2.00000
     13       3.7574      2.00000
     14       3.7574      2.00000
     15       3.8451      2.00000
     16       5.1393      2.00000
     17       7.5464      0.00000
     18       8.8221      0.00000
     19       9.0426      0.00000
     20       9.0426      0.00000
     21       9.5182      0.00000
     22       9.5182      0.00000
     23       9.5778      0.00000
     24       9.8804      0.00000
     25      10.0272      0.00000

 k-point    20 :       0.4545    0.3636    0.0000
  band No.  band energies     occupation 
      1      -4.7080      2.00000
      2      -4.3448      2.00000
      3      -3.6768      2.00000
      4      -3.3898      2.00000
      5      -0.4269      2.00000
      6      -0.0913      2.00000
      7       0.7431      2.00000
      8       1.2438      2.00000
      9       1.6109      2.00000
     10       1.8640      2.00000
     11       2.4444      2.00000
     12       2.7623      2.00000
     13       3.8801      2.00000
     14       3.9407      2.00000
     15       4.3242      2.00000
     16       4.8226      2.00000
     17       7.9558      0.00000
     18       8.6533      0.00000
     19       8.8602      0.00000
     20       9.1232      0.00000
     21       9.2305      0.00000
     22       9.4520      0.00000
     23      10.0134      0.00000
     24      10.4893      0.00000
     25      10.6499      0.00000

 k-point    21 :       0.4545    0.4545    0.0000
  band No.  band energies     occupation 
      1      -4.4179      2.00000
      2      -4.0719      2.00000
      3      -4.0719      2.00000
      4      -3.7505      2.00000
      5      -0.0542      2.00000
      6       0.3378      2.00000
      7       0.3378      2.00000
      8       0.7826      2.00000
      9       1.8053      2.00000
     10       2.0885      2.00000
     11       2.0885      2.00000
     12       2.3924      2.00000
     13       4.2731      2.00000
     14       4.3860      2.00000
     15       4.3860      2.00000
     16       4.7228      2.00000
     17       8.0346      0.00000
     18       8.4473      0.00000
     19       8.4473      0.00000
     20       8.5059      0.00000
     21      10.1749      0.00000
     22      10.1749      0.00000
     23      10.2382      0.00000
     24      10.5703      0.00000
     25      11.0517      0.00000

 k-point    22 :       0.0909    0.0909    0.0909
  band No.  band energies     occupation 
      1      -6.0258      2.00000
      2      -2.6356      2.00000
      3      -2.6356      2.00000
      4      -2.6356      2.00000
      5      -1.2629      2.00000
      6      -1.2629      2.00000
      7      -1.2629      2.00000
      8       2.6044      2.00000
      9       2.6044      2.00000
     10       2.6044      2.00000
     11       3.0648      2.00000
     12       3.0648      2.00000
     13       3.0648      2.00000
     14       4.8381      2.00000
     15       5.6566      2.00000
     16       5.6566      2.00000
     17       6.6185      0.00000
     18       6.6185      0.00000
     19       6.6185      0.00000
     20       7.2719      0.00000
     21       7.2719      0.00000
     22       7.2719      0.00000
     23       8.4233      0.00000
     24       8.6403      0.00000
     25       8.6403      0.00000

 k-point    23 :       0.1818    0.0909    0.0909
  band No.  band energies     occupation 
      1      -5.9180      2.00000
      2      -3.2552      2.00000
      3      -2.5907      2.00000
      4      -2.5907      2.00000
      5      -1.2613      2.00000
      6      -1.2613      2.00000
      7      -0.5360      2.00000
      8       2.2737      2.00000
      9       2.2737      2.00000
     10       2.7292      2.00000
     11       3.0231      2.00000
     12       3.0231      2.00000
     13       3.1613      2.00000
     14       4.2724      2.00000
     15       5.3306      2.00000
     16       5.5292      2.00000
     17       6.6740      0.00000
     18       6.8960      0.00000
     19       6.8960      0.00000
     20       7.5004      0.00000
     21       7.9338      0.00000
     22       7.9338      0.00000
     23       8.3661      0.00000
     24       8.6905      0.00000
     25       9.0787      0.00000

 k-point    24 :       0.2727    0.0909    0.0909
  band No.  band energies     occupation 
      1      -5.7388      2.00000
      2      -3.8237      2.00000
      3      -2.5270      2.00000
      4      -2.5270      2.00000
      5      -1.2648      2.00000
      6      -1.2648      2.00000
      7       0.2045      2.00000
      8       1.9917      2.00000
      9       1.9917      2.00000
     10       2.8484      2.00000
     11       2.8484      2.00000
     12       2.9389      2.00000
     13       3.3210      2.00000
     14       3.6603      2.00000
     15       4.9321      2.00000
     16       5.1182      2.00000
     17       6.7856      0.00000
     18       7.4830      0.00000
     19       7.4830      0.00000
     20       7.8587      0.00000
     21       8.1095      0.00000
     22       8.7550      0.00000
     23       8.7550      0.00000
     24       9.1380      0.00000
     25       9.6617      0.00000

 k-point    25 :       0.3636    0.0909    0.0909
  band No.  band energies     occupation 
      1      -5.4894      2.00000
      2      -4.3352      2.00000
      3      -2.4625      2.00000
      4      -2.4625      2.00000
      5      -1.2752      2.00000
      6      -1.2752      2.00000
      7       0.9432      2.00000
      8       1.7993      2.00000
      9       1.7993      2.00000
     10       2.6569      2.00000
     11       2.6569      2.00000
     12       3.0232      2.00000
     13       3.2351      2.00000
     14       3.5420      2.00000
     15       4.5285      2.00000
     16       4.5981      2.00000
     17       6.9596      0.00000
     18       7.7899      0.00000
     19       8.2801      0.00000
     20       8.2801      0.00000
     21       8.3341      0.00000
     22       9.6713      0.00000
     23       9.6713      0.00000
     24       9.7067      0.00000
     25      10.3213      0.00000

 k-point    26 :       0.4545    0.0909    0.0909
  band No.  band energies     occupation 
      1      -5.1709      2.00000
      2      -4.7854      2.00000
      3      -2.4207      2.00000
      4      -2.4207      2.00000
      5      -1.2858      2.00000
      6      -1.2858      2.00000
      7       1.6655      2.00000
      8       1.7063      2.00000
      9       1.7063      2.00000
     10       2.3597      2.00000
     11       2.5368      2.00000
     12       2.5368      2.00000
     13       3.6180      2.00000
     14       3.8211      2.00000
     15       4.0800      2.00000
     16       4.1529      2.00000
     17       7.1921      0.00000
     18       7.4743      0.00000
     19       8.9121      0.00000
     20       9.1959      0.00000
     21       9.1959      0.00000
     22       9.5369      0.00000
     23      10.1849      0.00000
     24      10.1850      0.00000
     25      10.7236      0.00000

 k-point    27 :       0.1818    0.1818    0.0909
  band No.  band energies     occupation 
      1      -5.8110      2.00000
      2      -3.1893      2.00000
      3      -3.1893      2.00000
      4      -2.5789      2.00000
      5      -1.2547      2.00000
      6      -0.5886      2.00000
      7      -0.5886      2.00000
      8       1.9469      2.00000
      9       2.4225      2.00000
     10       2.4225      2.00000
     11       3.1342      2.00000
     12       3.1342      2.00000
     13       3.2348      2.00000
     14       3.7109      2.00000
     15       5.0779      2.00000
     16       5.5789      2.00000
     17       6.8432      0.00000
     18       6.9886      0.00000
     19       6.9886      0.00000
     20       8.1139      0.00000
     21       8.1139      0.00000
     22       8.4000      0.00000
     23       8.6920      0.00000
     24       8.8079      0.00000
     25       9.1050      0.00000

 k-point    28 :       0.2727    0.1818    0.0909
  band No.  band energies     occupation 
      1      -5.6334      2.00000
      2      -3.7445      2.00000
      3      -3.0862      2.00000
      4      -2.5792      2.00000
      5      -1.2342      2.00000
      6      -0.6817      2.00000
      7       0.0811      2.00000
      8       1.7236      2.00000
      9       2.1483      2.00000
     10       2.6679      2.00000
     11       3.0078      2.00000
     12       3.1234      2.00000
     13       3.2475      2.00000
     14       3.3229      2.00000
     15       4.6714      2.00000
     16       5.3578      2.00000
     17       7.1409      0.00000
     18       7.1649      0.00000
     19       7.5833      0.00000
     20       8.4138      0.00000
     21       8.4211      0.00000
     22       8.8973      0.00000
     23       8.9106      0.00000
     24       9.5450      0.00000
     25       9.5632      0.00000

 k-point    29 :       0.3636    0.1818    0.0909
  band No.  band energies     occupation 
      1      -5.3863      2.00000
      2      -4.2468      2.00000
      3      -2.9571      2.00000
      4      -2.6145      2.00000
      5      -1.1831      2.00000
      6      -0.8107      2.00000
      7       0.7304      2.00000
      8       1.6245      2.00000
      9       1.9254      2.00000
     10       2.5364      2.00000
     11       2.9003      2.00000
     12       2.9990      2.00000
     13       3.1246      2.00000
     14       3.5963      2.00000
     15       4.2389      2.00000
     16       4.9186      2.00000
     17       7.3481      0.00000
     18       7.7990      0.00000
     19       8.1939      0.00000
     20       8.3782      0.00000
     21       8.8308      0.00000
     22       9.3422      0.00000
     23       9.7940      0.00000
     24      10.1593      0.00000
     25      10.4827      0.00000

 k-point    30 :       0.4545    0.1818    0.0909
  band No.  band energies     occupation 
      1      -5.0713      2.00000
      2      -4.6904      2.00000
      3      -2.8197      2.00000
      4      -2.6977      2.00000
      5      -1.0883      2.00000
      6      -0.9560      2.00000
      7       1.3517      2.00000
      8       1.6427      2.00000
      9       1.7526      2.00000
     10       1.9494      2.00000
     11       2.8872      2.00000
     12       2.9768      2.00000
     13       3.3898      2.00000
     14       3.8087      2.00000
     15       3.9640      2.00000
     16       4.4204      2.00000
     17       7.6032      0.00000
     18       7.8939      0.00000
     19       8.6356      0.00000
     20       9.2691      0.00000
     21       9.3500      0.00000
     22       9.6441      0.00000
     23       9.7853      0.00000
     24      10.2765      0.00000
     25      10.3233      0.00000

 k-point    31 :       0.2727    0.2727    0.0909
  band No.  band energies     occupation 
      1      -5.4586      2.00000
      2      -3.6168      2.00000
[...]
     20       8.1216      0.00000
     21       9.1631      0.00000
     22       9.3505      0.00000
     23       9.3505      0.00000
     24       9.3572      0.00000
     25      10.6615      0.00000

 k-point    45 :       0.4545    0.3636    0.1818
  band No.  band energies     occupation 
      1      -4.6839      2.00000
      2      -4.3436      2.00000
      3      -3.7560      2.00000
      4      -3.5445      2.00000
      5      -0.9231      2.00000
      6      -0.6882      2.00000
      7      -0.0110      2.00000
      8       0.4019      2.00000
      9       2.1737      2.00000
     10       2.3916      2.00000
     11       3.0153      2.00000
     12       3.4138      2.00000
     13       3.8271      2.00000
     14       3.8714      2.00000
     15       4.1663      2.00000
     16       4.5918      2.00000
     17       7.8730      0.00000
     18       8.1793      0.00000
     19       8.2940      0.00000
     20       8.4880      0.00000
     21       8.9317      0.00000
     22       8.9721      0.00000
     23       8.9980      0.00000
     24       9.7630      0.00000
     25       9.7858      0.00000

 k-point    46 :       0.4545    0.4545    0.1818
  band No.  band energies     occupation 
      1      -4.4152      2.00000
      2      -4.1014      2.00000
      3      -4.1014      2.00000
      4      -3.8282      2.00000
      5      -0.6904      2.00000
      6      -0.3811      2.00000
      7      -0.3811      2.00000
      8      -0.0158      2.00000
      9       2.4351      2.00000
     10       2.7227      2.00000
     11       2.7227      2.00000
     12       3.0655      2.00000
     13       4.1635      2.00000
     14       4.2551      2.00000
     15       4.2551      2.00000
     16       4.5442      2.00000
     17       7.8997      0.00000
     18       8.1194      0.00000
     19       8.2042      0.00000
     20       8.2042      0.00000
     21       9.1891      0.00000
     22       9.1891      0.00000
     23       9.4370      0.00000
     24       9.5243      0.00000
     25       9.9000      0.00000

 k-point    47 :       0.2727    0.2727    0.2727
  band No.  band energies     occupation 
      1      -5.2672      2.00000
      2      -3.6020      2.00000
      3      -3.6020      2.00000
      4      -3.6020      2.00000
      5      -0.7305      2.00000
      6      -0.7305      2.00000
      7      -0.7305      2.00000
      8       1.3425      2.00000
      9       2.3108      2.00000
     10       2.3108      2.00000
     11       2.3108      2.00000
     12       3.5747      2.00000
     13       3.5747      2.00000
     14       3.5747      2.00000
     15       4.8087      2.00000
     16       4.8087      2.00000
     17       7.3127      0.00000
     18       7.3127      0.00000
     19       7.3127      0.00000
     20       7.5118      0.00000
     21       9.1518      0.00000
     22       9.1518      0.00000
     23      10.5373      0.00000
     24      10.5373      0.00000
     25      10.5373      0.00000

 k-point    48 :       0.3636    0.2727    0.2727
  band No.  band energies     occupation 
      1      -5.0389      2.00000
      2      -4.0209      2.00000
      3      -3.5289      2.00000
      4      -3.5289      2.00000
      5      -0.9496      2.00000
      6      -0.9496      2.00000
      7      -0.3982      2.00000
      8       0.8407      2.00000
      9       2.3811      2.00000
     10       2.3811      2.00000
     11       2.9149      2.00000
     12       3.6580      2.00000
     13       3.6580      2.00000
     14       3.7617      2.00000
     15       4.5337      2.00000
     16       4.6624      2.00000
     17       7.5596      0.00000
     18       7.6052      0.00000
     19       7.6446      0.00000
     20       7.6446      0.00000
     21       8.9737      0.00000
     22       9.4007      0.00000
     23       9.9621      0.00000
     24       9.9621      0.00000
     25      10.0305      0.00000

 k-point    49 :       0.4545    0.2727    0.2727
  band No.  band energies     occupation 
      1      -4.7510      2.00000
      2      -4.4087      2.00000
      3      -3.4814      2.00000
      4      -3.4814      2.00000
      5      -1.0774      2.00000
      6      -1.0774      2.00000
      7      -0.0301      2.00000
      8       0.3820      2.00000
      9       2.4348      2.00000
     10       2.4348      2.00000
     11       3.5616      2.00000
     12       3.6642      2.00000
     13       3.6642      2.00000
     14       3.9914      2.00000
     15       4.1822      2.00000
     16       4.2538      2.00000
     17       7.7988      0.00000
     18       7.8495      0.00000
     19       8.2454      0.00000
     20       8.2454      0.00000
     21       8.9358      0.00000
     22       9.0736      0.00000
     23       9.0736      0.00000
     24       9.3432      0.00000
     25       9.7259      0.00000

 k-point    50 :       0.3636    0.3636    0.2727
  band No.  band energies     occupation 
      1      -4.8213      2.00000
      2      -3.8848      2.00000
      3      -3.8848      2.00000
      4      -3.5499      2.00000
      5      -1.0930      2.00000
      6      -0.7255      2.00000
      7      -0.7255      2.00000
      8       0.3628      2.00000
      9       2.5842      2.00000
     10       2.9720      2.00000
     11       2.9720      2.00000
     12       3.8768      2.00000
     13       3.8768      2.00000
     14       3.8900      2.00000
     15       4.3142      2.00000
     16       4.7363      2.00000
     17       7.5143      0.00000
     18       7.6552      0.00000
     19       7.8452      0.00000
     20       7.8452      0.00000
     21       9.0816      0.00000
     22       9.2402      0.00000
     23       9.3742      0.00000
     24       9.3742      0.00000
     25       9.9049      0.00000

 k-point    51 :       0.4545    0.3636    0.2727
  band No.  band energies     occupation 
      1      -4.5498      2.00000
      2      -4.2329      2.00000
      3      -3.7425      2.00000
      4      -3.6226      2.00000
      5      -1.1040      2.00000
      6      -0.9736      2.00000
      7      -0.4283      2.00000
      8      -0.0635      2.00000
      9       2.7718      2.00000
     10       2.9151      2.00000
     11       3.5297      2.00000
     12       3.9599      2.00000
     13       3.9751      2.00000
     14       3.9844      2.00000
     15       4.1723      2.00000
     16       4.5187      2.00000
     17       7.7362      0.00000
     18       7.9413      0.00000
     19       7.9607      0.00000
     20       8.2628      0.00000
     21       8.7826      0.00000
     22       8.9428      0.00000
     23       8.9606      0.00000
     24       9.2282      0.00000
     25       9.4571      0.00000

 k-point    52 :       0.4545    0.4545    0.2727
  band No.  band energies     occupation 
      1      -4.3041      2.00000
      2      -4.0276      2.00000
      3      -4.0276      2.00000
      4      -3.8143      2.00000
      5      -0.9926      2.00000
      6      -0.7585      2.00000
      7      -0.7585      2.00000
      8      -0.4494      2.00000
      9       3.0702      2.00000
     10       3.3306      2.00000
     11       3.3306      2.00000
     12       3.6795      2.00000
     13       4.2312      2.00000
     14       4.2965      2.00000
     15       4.2965      2.00000
     16       4.5356      2.00000
     17       7.7753      0.00000
     18       7.8931      0.00000
     19       7.9958      0.00000
     20       7.9958      0.00000
     21       8.9189      0.00000
     22       8.9189      0.00000
     23       9.1513      0.00000
     24       9.2354      0.00000
     25       9.2837      0.00000

 k-point    53 :       0.3636    0.3636    0.3636
  band No.  band energies     occupation 
      1      -4.6193      2.00000
      2      -3.8101      2.00000
      3      -3.8101      2.00000
      4      -3.8101      2.00000
      5      -1.0004      2.00000
      6      -1.0004      2.00000
      7      -1.0004      2.00000
      8      -0.0916      2.00000
      9       3.2445      2.00000
     10       3.2445      2.00000
     11       3.2445      2.00000
     12       4.0386      2.00000
     13       4.0386      2.00000
     14       4.0386      2.00000
     15       4.5795      2.00000
     16       4.5795      2.00000
     17       7.2523      0.00000
     18       7.7849      0.00000
     19       7.7849      0.00000
     20       7.7849      0.00000
     21       9.1019      0.00000
     22       9.1019      0.00000
     23       9.2525      0.00000
     24       9.2525      0.00000
     25       9.2525      0.00000

 k-point    54 :       0.4545    0.3636    0.3636
  band No.  band energies     occupation 
      1      -4.3726      2.00000
      2      -4.0954      2.00000
      3      -3.7615      2.00000
      4      -3.7615      2.00000
      5      -1.1541      2.00000
      6      -1.1541      2.00000
      7      -0.7904      2.00000
      8      -0.4816      2.00000
      9       3.3837      2.00000
     10       3.3837      2.00000
     11       3.8880      2.00000
     12       4.1399      2.00000
     13       4.1399      2.00000
     14       4.2127      2.00000
     15       4.3989      2.00000
     16       4.4009      2.00000
     17       7.3894      0.00000
     18       7.7054      0.00000
     19       7.9118      0.00000
     20       7.9118      0.00000
     21       8.8841      0.00000
     22       8.8841      0.00000
     23       8.9041      0.00000
     24       8.9433      0.00000
     25       9.2411      0.00000

 k-point    55 :       0.4545    0.4545    0.3636
  band No.  band energies     occupation 
      1      -4.1662      2.00000
      2      -3.9524      2.00000
      3      -3.9524      2.00000
      4      -3.8326      2.00000
      5      -1.1831      2.00000
      6      -1.0539      2.00000
      7      -1.0539      2.00000
      8      -0.8206      2.00000
      9       3.7137      2.00000
     10       3.8965      2.00000
     11       3.8965      2.00000
     12       4.2151      2.00000
     13       4.3120      2.00000
     14       4.3401      2.00000
     15       4.3401      2.00000
     16       4.5103      2.00000
     17       7.3409      0.00000
     18       7.6092      0.00000
     19       7.6092      0.00000
     20       7.6767      0.00000
     21       8.8897      0.00000
     22       8.8897      0.00000
     23       8.9628      0.00000
     24       9.0507      0.00000
     25       9.0552      0.00000

 k-point    56 :       0.4545    0.4545    0.4545
  band No.  band energies     occupation 
      1      -4.0230      2.00000
      2      -3.9034      2.00000
      3      -3.9034      2.00000
      4      -3.9034      2.00000
      5      -1.2169      2.00000
      6      -1.2169      2.00000
      7      -1.2169      2.00000
      8      -1.0881      2.00000
      9       4.2470      2.00000
     10       4.2470      2.00000
     11       4.2470      2.00000
     12       4.3934      2.00000
     13       4.3934      2.00000
     14       4.3934      2.00000
     15       4.4624      2.00000
     16       4.4624      2.00000
     17       7.1172      0.00000
     18       7.2987      0.00000
     19       7.2987      0.00000
     20       7.2987      0.00000
     21       8.9381      0.00000
     22       8.9381      0.00000
     23       8.9381      0.00000
     24       8.9996      0.00000
     25       8.9996      0.00000


--------------------------------------------------------------------------------------------------------


 soft charge-density along one line, spin component           1
         0         1         2         3         4         5         6         7         8         9
 total charge-density along one line
 
 pseudopotential strength for first ion, spin component:           1
 18.437  25.723  -0.000  -0.000   0.000  -0.000  -0.000   0.000
 25.723  35.893  -0.000  -0.000   0.000  -0.000  -0.000   0.000
 -0.000  -0.000   4.181   0.000   0.000   7.791   0.000   0.000
 -0.000  -0.000   0.000   4.181   0.000   0.000   7.791   0.000
  0.000   0.000   0.000   0.000   4.181   0.000   0.000   7.791
 -0.000  -0.000   7.791   0.000   0.000  14.529   0.000   0.000
 -0.000  -0.000   0.000   7.791   0.000   0.000  14.529   0.000
  0.000   0.000   0.000   0.000   7.791   0.000   0.000  14.529
 total augmentation occupancy for first ion, spin component:           1
  5.636  -2.120   0.000   0.000  -0.000  -0.000  -0.000  -0.000
 -2.120   0.913   0.000   0.000  -0.000   0.000  -0.000  -0.000
 -0.000   0.000   3.029   0.000  -0.000  -0.697  -0.000   0.000
 -0.000  -0.000  -0.000   3.029  -0.000  -0.000  -0.697   0.000
  0.000  -0.000  -0.000  -0.000   3.029   0.000   0.000  -0.697
  0.000  -0.000  -0.697  -0.000   0.000   0.169   0.000  -0.000
  0.000   0.000  -0.000  -0.697   0.000  -0.000   0.169  -0.000
 -0.000  -0.000   0.000   0.000  -0.697  -0.000  -0.000   0.169


------------------------ aborting loop because EDIFF is reached ----------------------------------------


    CHARGE:  cpu time    0.0237: real time    0.0238
    FORLOC:  cpu time    0.0004: real time    0.0004
    FORNL :  cpu time    0.0468: real time    0.0469
    STRESS:  cpu time    0.0945: real time    0.0948
    FORCOR:  cpu time    0.0046: real time    0.0047
    FORHAR:  cpu time    0.0013: real time    0.0013
    MIXING:  cpu time    0.0006: real time    0.0006
    OFIELD:  cpu time    0.0000: real time    0.0000

  FORCE on cell =-STRESS in cart. coord.  units (eV):
  Direction    XX          YY          ZZ          XY          YZ          ZX
  --------------------------------------------------------------------------------------
  Alpha Z    13.18596    13.18596    13.18596
  Ewald    -302.69506  -302.69506  -302.69506    -0.00000     0.00000    -0.00000
  Hartree    20.20817    20.20817    20.20817    -0.00000    -0.00000    -0.00000
  E(xc)    -101.03762  -101.03762  -101.03762    -0.00000    -0.00000    -0.00000
  Local    -118.19241  -118.19241  -118.19241    -0.00000     0.00000    -0.00000
  n-local   309.99795   313.45850   306.81446    -2.94642    -2.30263    -1.50967
  augment   -46.56425   -46.56425   -46.56425     0.00000    -0.00000     0.00000
  Kinetic   217.74650   229.55163   227.63978    -3.73576    -5.28242    -2.56055
  Fock        0.00000     0.00000     0.00000     0.00000     0.00000     0.00000
  -------------------------------------------------------------------------------------
  Total      -0.02560    -0.02560    -0.02560    -0.00000     0.00000    -0.00000
  in kB      -0.25104    -0.25104    -0.25104    -0.00000     0.00000    -0.00000
  external pressure =       -0.25 kB  Pullay stress =        0.00 kB


 VOLUME and BASIS-vectors are now :
 -----------------------------------------------------------------------------
  energy-cutoff  :      300.00
  volume of cell :      163.39
      direct lattice vectors                 reciprocal lattice vectors
     5.466897362  0.000000000  0.000000000     0.182919110  0.000000000  0.000000000
    -0.000000000  5.466897362  0.000000000    -0.000000000  0.182919110  0.000000000
    -0.000000000 -0.000000000  5.466897362     0.000000000 -0.000000000  0.182919110

  length of vectors
     5.466897362  5.466897362  5.466897362     0.182919110  0.182919110  0.182919110


 FORCES acting on ions
    electron-ion (+dipol)            ewald-force                    non-local-force                 convergence-correction
 -----------------------------------------------------------------------------------------------
   -.195E-14 0.146E-14 -.167E-13   0.178E-13 0.107E-13 0.000E+00   -.113E-16 0.204E-16 0.312E-16   -.156E-14 0.214E-14 0.519E-14
   -.660E-15 -.373E-14 -.221E-13   0.178E-13 0.107E-13 0.000E+00   0.364E-16 0.564E-17 0.286E-16   -.161E-14 0.142E-14 0.459E-14
   0.213E-14 -.131E-14 -.381E-12   0.178E-13 0.107E-13 0.000E+00   0.399E-16 0.204E-16 0.425E-16   0.308E-14 0.220E-14 0.511E-14
   0.548E-15 -.144E-12 -.182E-12   0.178E-13 0.107E-13 0.000E+00   0.182E-16 0.343E-16 0.347E-17   0.302E-14 0.198E-14 0.545E-14
   -.871E-14 0.925E-13 -.267E-13   -.180E-13 -.112E-13 -.127E-15   -.113E-16 -.590E-16 0.954E-17   -.267E-14 -.882E-15 0.489E-14
   -.113E-13 0.542E-13 0.381E-12   -.135E-13 -.110E-13 -.115E-15   -.130E-16 -.156E-16 -.338E-16   0.175E-14 0.795E-15 0.464E-14
   -.378E-14 0.244E-12 0.160E-12   -.143E-13 -.102E-13 0.295E-16   -.165E-16 -.871E-18 -.182E-16   0.186E-14 -.131E-14 0.273E-14
   -.751E-14 0.127E-12 -.106E-13   -.182E-13 -.101E-13 0.415E-16   -.338E-16 -.295E-16 -.338E-16   -.228E-14 0.116E-14 0.305E-14
 -----------------------------------------------------------------------------------------------
   -.312E-13 0.370E-12 -.987E-13   0.700E-14 0.156E-15 -.171E-15   0.867E-17 -.243E-16 0.295E-16   0.158E-14 0.750E-14 0.356E-13
 
 
 POSITION                                       TOTAL-FORCE (eV/Angst)
 -----------------------------------------------------------------------------------
     -0.00000     -0.00000     -0.00000        -0.000000      0.000000     -0.000000
     -0.00000      2.73345      2.73345        -0.000000     -0.000000     -0.000000
      2.73345     -0.00000      2.73345        -0.000000      0.000000     -0.000000
      2.73345      2.73345      0.00000        -0.000000      0.000000     -0.000000
      1.36672      1.36672      1.36672         0.000000     -0.000000      0.000000
      4.10017      4.10017      1.36672         0.000000     -0.000000      0.000000
      4.10017      1.36672      4.10017         0.000000     -0.000000      0.000000
      1.36672      4.10017      4.10017         0.000000     -0.000000      0.000000
 -----------------------------------------------------------------------------------
    total drift:                               -0.000000      0.000000     -0.000000


--------------------------------------------------------------------------------------------------------



  FREE ENERGIE OF THE ION-ELECTRON SYSTEM (eV)
  ---------------------------------------------------
  free  energy   TOTEN  =       -43.37197921 eV

  energy  without entropy=      -43.37197917  energy(sigma->0) =      -43.37197919
 
 d Force = 0.0000000E+00[ 0.000E+00, 0.000E+00]  d Energy = 0.9464900E-01-0.946E-01
 d Force = 0.0000000E+00[ 0.000E+00, 0.000E+00]  d Ewald  = 0.1381368E+02-0.138E+02


--------------------------------------------------------------------------------------------------------


    POTLOK:  cpu time    0.0059: real time    0.0059


--------------------------------------------------------------------------------------------------------




--------------------------------------------------------------------------------------------------------


  
 reached required accuracy - stopping structural energy minimisation
 writing wavefunctions
     LOOP+:  cpu time    3.6282: real time    3.7069
    4ORBIT:  cpu time    0.0000: real time    0.0000

 total amount of memory used by VASP on root node    32980. kBytes
========================================================================

   base      :      30000. kBytes
   nonl-proj :        946. kBytes
   fftplans  :        356. kBytes
   grid      :        488. kBytes
   one-center:          3. kBytes
   wavefun   :       1187. kBytes
 
  
  
 General timing and accounting informations for this job:
 ========================================================
  
                  Total CPU time used (sec):       13.937
                            User time (sec):       13.188
                          System time (sec):        0.749
                         Elapsed time (sec):       16.082
  
                   Maximum memory used (kb):      132300.
                   Average memory used (kb):           0.
  
                          Minor page faults:        26680
                          Major page faults:           44
                 Voluntary context switches:         9234
