<?xml version="1.0" encoding="ISO-8859-1"?>
<modeling>
 <generator>
  <i name="program" type="string">vasp </i>
  <i name="version" type="string">5.4.1  </i>
  <i name="subversion" type="string">05Feb16 (build Feb 24 2020 14:33:01) complex                          parallel </i>
  <i name="platform" type="string">IFC91_ompi </i>
  <i name="date" type="string">2020 02 27 </i>
  <i name="time" type="string">22:03:50 </i>
 </generator>
 <incar>
  <i type="string" name="SYSTEM"> diamond Si</i>
  <i type="int" name="ISTART">     0</i>
  <i type="string" name="PREC">accurate</i>
  <i type="int" name="NSIM">     4</i>
  <i type="int" name="ICHARG">     2</i>
  <i type="int" name="NELM">    60</i>
  <i type="int" name="NELMDL">     3</i>
  <i type="int" name="NELMIN">     0</i>
  <i type="int" name="IBRION">     2</i>
  <i name="EDIFF">      0.00010000</i>
  <i name="EDIFFG">     -0.01000000</i>
  <i type="int" name="NSW">     9</i>
  <i type="int" name="ISIF">     3</i>
  <i name="ENCUT">    300.00000000</i>
  <i name="POTIM">      1.00000000</i>
  <i type="logical" name="LPLANE"> F  </i>
  <i type="int" name="ISMEAR">     0</i>
  <i name="SIGMA">      0.10000000</i>
  <v type="int" name="KPOINT_BSE">    -1     0     0     0</v>
  <i type="int" name="NELM">    60</i>
 </incar>
 <kpoints>
  <generation param="Monkhorst-Pack">
   <v type="int" name="divisions">      11       11       11 </v>
   <v name="usershift">      0.00000000       0.00000000       0.00000000 </v>
   <v name="genvec1">      0.09090909       0.00000000       0.00000000 </v>
   <v name="genvec2">      0.00000000       0.09090909       0.00000000 </v>
   <v name="genvec3">      0.00000000       0.00000000       0.09090909 </v>
   <v name="shift">      0.00000000       0.00000000       0.00000000 </v>
  </generation>
  <varray name="kpointlist" >
   <v>       0.00000000       0.00000000       0.00000000 </v>
   <v>       0.09090909       0.00000000       0.00000000 </v>
   <v>       0.18181818       0.00000000       0.00000000 </v>
   <v>       0.27272727       0.00000000       0.00000000 </v>
   <v>       0.36363636       0.00000000       0.00000000 </v>
   <v>       0.45454545       0.00000000       0.00000000 </v>
   <v>       0.09090909       0.09090909       0.00000000 </v>
   <v>       0.18181818       0.09090909       0.00000000 </v>
   <v>       0.27272727       0.09090909       0.00000000 </v>
   <v>       0.36363636       0.09090909       0.00000000 </v>
   <v>       0.45454545       0.09090909       0.00000000 </v>
   <v>       0.18181818       0.18181818       0.00000000 </v>
   <v>       0.27272727       0.18181818       0.00000000 </v>
   <v>       0.36363636       0.18181818       0.00000000 </v>
   <v>       0.45454545       0.18181818       0.00000000 </v>
   <v>       0.27272727       0.27272727       0.00000000 </v>
   <v>       0.36363636       0.27272727       0.00000000 </v>
   <v>       0.45454545       0.27272727       0.00000000 </v>
   <v>       0.36363636       0.36363636       0.00000000 </v>
   <v>       0.45454545       0.36363636       0.00000000 </v>
   <v>       0.45454545       0.45454545       0.00000000 </v>
   <v>       0.09090909       0.09090909       0.09090909 </v>
   <v>       0.18181818       0.09090909       0.09090909 </v>
   <v>       0.27272727       0.09090909       0.09090909 </v>
   <v>       0.36363636       0.09090909       0.09090909 </v>
   <v>       0.45454545       0.09090909       0.09090909 </v>
   <v>       0.18181818       0.18181818       0.09090909 </v>
   <v>       0.27272727       0.18181818       0.09090909 </v>
   <v>       0.36363636       0.18181818       0.09090909 </v>
   <v>       0.45454545       0.18181818       0.09090909 </v>
   <v>       0.27272727       0.27272727       0.09090909 </v>
   <v>       0.36363636       0.27272727       0.09090909 </v>
   <v>       0.45454545       0.27272727       0.09090909 </v>
   <v>       0.36363636       0.36363636       0.09090909 </v>
   <v>       0.45454545       0.36363636       0.09090909 </v>
   <v>       0.45454545       0.45454545       0.09090909 </v>
   <v>       0.18181818       0.18181818       0.18181818 </v>
   <v>       0.27272727       0.18181818       0.18181818 </v>
   <v>       0.36363636       0.18181818       0.18181818 </v>
   <v>       0.45454545       0.18181818       0.18181818 </v>
   <v>       0.27272727       0.27272727       0.18181818 </v>
   <v>       0.36363636       0.27272727       0.18181818 </v>
   <v>       0.45454545       0.27272727       0.18181818 </v>
   <v>       0.36363636       0.36363636       0.18181818 </v>
   <v>       0.45454545       0.36363636       0.18181818 </v>
   <v>       0.45454545       0.45454545       0.18181818 </v>
   <v>       0.27272727       0.27272727       0.27272727 </v>
   <v>       0.36363636       0.27272727       0.27272727 </v>
   <v>       0.45454545       0.27272727       0.27272727 </v>
   <v>       0.36363636       0.36363636       0.27272727 </v>
   <v>       0.45454545       0.36363636       0.27272727 </v>
   <v>       0.45454545       0.45454545       0.27272727 </v>
   <v>       0.36363636       0.36363636       0.36363636 </v>
   <v>       0.45454545       0.36363636       0.36363636 </v>
   <v>       0.45454545       0.45454545       0.36363636 </v>
   <v>       0.45454545       0.45454545       0.45454545 </v>
  </varray>
  <varray name="weights" >
   <v>       0.00075131 </v>
   <v>       0.00450789 </v>
   <v>       0.00450789 </v>
   <v>       0.00450789 </v>
   <v>       0.00450789 </v>
   <v>       0.00450789 </v>
   <v>       0.00901578 </v>
   <v>       0.01803156 </v>
   <v>       0.01803156 </v>
   <v>       0.01803156 </v>
   <v>       0.01803156 </v>
   <v>       0.00901578 </v>
   <v>       0.01803156 </v>
   <v>       0.01803156 </v>
   <v>       0.01803156 </v>
   <v>       0.00901578 </v>
   <v>       0.01803156 </v>
   <v>       0.01803156 </v>
   <v>       0.00901578 </v>
   <v>       0.01803156 </v>
   <v>       0.00901578 </v>
   <v>       0.00601052 </v>
   <v>       0.01803156 </v>
   <v>       0.01803156 </v>
   <v>       0.01803156 </v>
   <v>       0.01803156 </v>
   <v>       0.01803156 </v>
   <v>       0.03606311 </v>
   <v>       0.03606311 </v>
   <v>       0.03606311 </v>
   <v>       0.01803156 </v>
   <v>       0.03606311 </v>
   <v>       0.03606311 </v>
   <v>       0.01803156 </v>
   <v>       0.03606311 </v>
   <v>       0.01803156 </v>
   <v>       0.00601052 </v>
   <v>       0.01803156 </v>
   <v>       0.01803156 </v>
   <v>       0.01803156 </v>
   <v>       0.01803156 </v>
   <v>       0.03606311 </v>
   <v>       0.03606311 </v>
   <v>       0.01803156 </v>
   <v>       0.03606311 </v>
   <v>       0.01803156 </v>
   <v>       0.00601052 </v>
   <v>       0.01803156 </v>
   <v>       0.01803156 </v>
   <v>       0.01803156 </v>
   <v>       0.03606311 </v>
   <v>       0.01803156 </v>
   <v>       0.00601052 </v>
   <v>       0.01803156 </v>
   <v>       0.01803156 </v>
   <v>       0.00601052 </v>
  </varray>
 </kpoints>
 <parameters>
  <separator name="general" >
   <i type="string" name="SYSTEM">diamond Si</i>
   <i type="logical" name="LCOMPAT"> F  </i>
  </separator>
  <separator name="electronic" >
   <i type="string" name="PREC">accura</i>
   <i name="ENMAX">    300.00000000</i>
   <i name="ENAUG">    322.06900000</i>
   <i name="EDIFF">      0.00010000</i>
   <i type="int" name="IALGO">    38</i>
   <i type="int" name="IWAVPR">    11</i>
   <i type="int" name="NBANDS">    25</i>
   <i name="NELECT">     32.00000000</i>
   <i type="int" name="TURBO">     0</i>
   <i type="int" name="IRESTART">     0</i>
   <i type="int" name="NREBOOT">     0</i>
   <i type="int" name="NMIN">     0</i>
   <i name="EREF">      0.00000000</i>
   <separator name="electronic smearing" >
    <i type="int" name="ISMEAR">     0</i>
    <i name="SIGMA">      0.10000000</i>
    <i name="KSPACING">      0.50000000</i>
    <i type="logical" name="KGAMMA"> T  </i>
   </separator>
   <separator name="electronic projectors" >
    <i type="logical" name="LREAL"> F  </i>
    <v name="ROPT">      0.00000000</v>
    <i type="int" name="LMAXPAW">  -100</i>
    <i type="int" name="LMAXMIX">     2</i>
    <i type="logical" name="NLSPLINE"> F  </i>
   </separator>
   <separator name="electronic startup" >
    <i type="int" name="ISTART">     0</i>
    <i type="int" name="ICHARG">     2</i>
    <i type="int" name="INIWAV">     1</i>
   </separator>
   <separator name="electronic spin" >
    <i type="int" name="ISPIN">     1</i>
    <i type="logical" name="LNONCOLLINEAR"> F  </i>
    <v name="MAGMOM">      1.00000000      1.00000000      1.00000000      1.00000000      1.00000000      1.00000000      1.00000000      1.00000000</v>
    <i name="NUPDOWN">     -1.00000000</i>
    <i type="logical" name="LSORBIT"> F  </i>
    <v name="SAXIS">      0.00000000      0.00000000      1.00000000</v>
    <i type="logical" name="LSPIRAL"> F  </i>
    <v name="QSPIRAL">      0.00000000      0.00000000      0.00000000</v>
    <i type="logical" name="LZEROZ"> F  </i>
   </separator>
   <separator name="electronic exchange-correlation" >
    <i type="logical" name="LASPH"> F  </i>
    <i type="logical" name="LMETAGGA"> F  </i>
   </separator>
   <separator name="electronic convergence" >
    <i type="int" name="NELM">    60</i>
    <i type="int" name="NELMDL">     3</i>
    <i type="int" name="NELMIN">     0</i>
    <i name="ENINI">    300.00000000</i>
    <separator name="electronic convergence detail" >
     <i type="logical" name="LDIAG"> T  </i>
     <i type="logical" name="LSUBROT"> F  </i>
     <i name="WEIMIN">      0.00100000</i>
     <i name="EBREAK">      0.00000100</i>
     <i name="DEPER">      0.30000000</i>
     <i type="int" name="NRMM">     4</i>
     <i name="TIME">      0.40000000</i>
    </separator>
   </separator>
   <separator name="electronic mixer" >
    <i name="AMIX">      0.40000000</i>
    <i name="BMIX">      1.00000000</i>
    <i name="AMIN">      0.10000000</i>
    <i name="AMIX_MAG">      1.60000000</i>
    <i name="BMIX_MAG">      1.00000000</i>
    <separator name="electronic mixer details" >
     <i type="int" name="IMIX">     4</i>
     <i type="logical" name="MIXFIRST"> F  </i>
     <i type="int" name="MAXMIX">   -45</i>
     <i name="WC">    100.00000000</i>
     <i type="int" name="INIMIX">     1</i>
     <i type="int" name="MIXPRE">     1</i>
     <i type="int" name="MREMOVE">     5</i>
    </separator>
   </separator>
   <separator name="electronic dipolcorrection" >
    <i type="logical" name="LDIPOL"> F  </i>
    <i type="logical" name="LMONO"> F  </i>
    <i type="int" name="IDIPOL">     0</i>
    <i name="EPSILON">      1.00000000</i>
    <v name="DIPOL">   -100.00000000   -100.00000000   -100.00000000</v>
    <i name="EFIELD">      0.00000000</i>
   </separator>
  </separator>
  <separator name="grids" >
   <i type="int" name="NGX">    32</i>
   <i type="int" name="NGY">    32</i>
   <i type="int" name="NGZ">    32</i>
   <i type="int" name="NGXF">    64</i>
   <i type="int" name="NGYF">    64</i>
   <i type="int" name="NGZF">    64</i>
   <i type="logical" name="ADDGRID"> F  </i>
  </separator>
  <separator name="ionic" >
   <i type="int" name="NSW">     9</i>
   <i type="int" name="IBRION">     2</i>
   <i type="int" name="ISIF">     3</i>
   <i name="PSTRESS">      0.00000000</i>
   <i name="EDIFFG">     -0.01000000</i>
   <i type="int" name="NFREE">     1</i>
   <i name="POTIM">      1.00000000</i>
   <i name="SMASS">     -3.00000000</i>
   <i name="SCALEE">      1.00000000</i>
  </separator>
  <separator name="ionic md" >
   <i name="TEBEG">      0.00010000</i>
   <i name="TEEND">      0.00010000</i>
   <i type="int" name="NBLOCK">     1</i>
   <i type="int" name="KBLOCK">     9</i>
   <i type="int" name="NPACO">   256</i>
   <i name="APACO">     16.00000000</i>
  </separator>
  <separator name="symmetry" >
   <i type="int" name="ISYM">     2</i>
   <i name="SYMPREC">      0.00001000</i>
  </separator>
  <separator name="dos" >
   <i type="logical" name="LORBIT"> F  </i>
   <v name="RWIGS">     -1.00000000</v>
   <i type="int" name="NEDOS">   301</i>
   <i name="EMIN">     10.00000000</i>
   <i name="EMAX">    -10.00000000</i>
   <i name="EFERMI">      0.00000000</i>
  </separator>
  <separator name="writing" >
   <i type="int" name="NWRITE">     2</i>
   <i type="logical" name="LWAVE"> T  </i>
   <i type="logical" name="LCHARG"> T  </i>
   <i type="logical" name="LPARD"> F  </i>
   <i type="logical" name="LVTOT"> F  </i>
   <i type="logical" name="LVHAR"> F  </i>
   <i type="logical" name="LELF"> F  </i>
   <i type="logical" name="LOPTICS"> F  </i>
   <v name="STM">      0.00000000      0.00000000      0.00000000      0.00000000      0.00000000      0.00000000      0.00000000</v>
  </separator>
  <separator name="performance" >
   <i type="int" name="NPAR">     5</i>
   <i type="int" name="NSIM">     4</i>
   <i type="int" name="NBLK">    -1</i>
   <i type="logical" name="LPLANE"> F  </i>
   <i type="logical" name="LSCALAPACK"> T  </i>
   <i type="logical" name="LSCAAWARE"> F  </i>
   <i type="logical" name="LSCALU"> F  </i>
   <i type="logical" name="LASYNC"> F  </i>
   <i type="logical" name="LORBITALREAL"> F  </i>
  </separator>
  <separator name="miscellaneous" >
   <i type="int" name="IDIOT">     3</i>
   <i type="logical" name="LMUSIC"> F  </i>
   <v name="POMASS">     28.08500000</v>
   <v name="DARWINR">      0.00000000</v>
   <v name="DARWINV">      1.00000000</v>
   <i type="logical" name="LCORR"> T  </i>
  </separator>
  <i type="logical" name="GGA_COMPAT"> T  </i>
  <i type="logical" name="LBERRY"> F  </i>
  <i type="int" name="ICORELEVEL">     0</i>
  <i type="logical" name="LDAU"> F  </i>
  <i type="int" name="I_CONSTRAINED_M">     0</i>
  <separator name="electronic exchange-correlation" >
   <i type="string" name="GGA">--</i>
   <i type="int" name="VOSKOWN">     0</i>
   <i type="logical" name="LHFCALC"> F  </i>
   <i type="string" name="PRECFOCK"></i>
   <i type="logical" name="LSYMGRAD"> F  </i>
   <i type="logical" name="LHFONE"> F  </i>
   <i type="logical" name="LRHFCALC"> F  </i>
   <i type="logical" name="LTHOMAS"> F  </i>
   <i type="logical" name="LMODELHF"> F  </i>
   <i name="ENCUT4O">     -1.00000000</i>
   <i type="int" name="EXXOEP">     0</i>
   <i type="int" name="FOURORBIT">     0</i>
   <i name="AEXX">      0.00000000</i>
   <i name="HFALPHA">      0.00000000</i>
   <i name="MCALPHA">      0.00000000</i>
   <i name="ALDAX">      1.00000000</i>
   <i name="AGGAX">      1.00000000</i>
   <i name="ALDAC">      1.00000000</i>
   <i name="AGGAC">      1.00000000</i>
   <i type="int" name="NKREDX">     1</i>
   <i type="int" name="NKREDY">     1</i>
   <i type="int" name="NKREDZ">     1</i>
   <i type="logical" name="SHIFTRED"> F  </i>
   <i type="logical" name="ODDONLY"> F  </i>
   <i type="logical" name="EVENONLY"> F  </i>
   <i type="int" name="LMAXFOCK">     0</i>
   <i type="int" name="NMAXFOCKAE">     0</i>
   <i type="logical" name="LFOCKAEDFT"> F  </i>
   <i name="HFSCREEN">      0.00000000</i>
   <i name="HFSCREENC">      0.00000000</i>
   <i type="int" name="NBANDSGWLOW">     0</i>
  </separator>
  <separator name="vdW DFT" >
   <i type="logical" name="LUSE_VDW"> F  </i>
   <i name="Zab_VDW">     -0.84910000</i>
   <i name="PARAM1">      0.12340000</i>
   <i name="PARAM2">      1.00000000</i>
   <i name="PARAM3">      0.00000000</i>
  </separator>
  <separator name="model GW" >
   <i type="int" name="MODEL_GW">     0</i>
   <i name="MODEL_EPS0">     12.01436085</i>
   <i name="MODEL_ALPHA">      1.00000000</i>
  </separator>
  <separator name="linear response parameters" >
   <i type="logical" name="LEPSILON"> F  </i>
   <i type="logical" name="LRPA"> F  </i>
   <i type="logical" name="LNABLA"> F  </i>
   <i type="logical" name="LVEL"> F  </i>
   <i type="int" name="KINTER">     0</i>
   <i name="CSHIFT">      0.10000000</i>
   <i name="OMEGAMAX">     -1.00000000</i>
   <i name="DEG_THRESHOLD">      0.00200000</i>
  </separator>
  <separator name="orbital magnetization" >
   <i type="logical" name="NUCIND"> F  </i>
   <v name="MAGPOS">      0.00000000      0.00000000      0.00000000</v>
   <i type="logical" name="LNICSALL"> T  </i>
   <i type="logical" name="ORBITALMAG"> F  </i>
   <i type="logical" name="LMAGBLOCH"> F  </i>
   <i type="logical" name="LCHIMAG"> F  </i>
   <i type="logical" name="LGAUGE"> T  </i>
   <i type="int" name="MAGATOM">     0</i>
   <v name="MAGDIPOL">      0.00000000      0.00000000      0.00000000</v>
   <v name="AVECCONST">      0.00000000      0.00000000      0.00000000</v>
  </separator>
  <separator name="response functions" >
   <i type="logical" name="LADDER"> F  </i>
   <i type="logical" name="LFXC"> F  </i>
   <i type="logical" name="LHARTREE"> T  </i>
   <i type="int" name="IBSE">     0</i>
   <v type="int" name="KPOINT">    -1     0     0     0</v>
   <i type="logical" name="LTCTE"> F  </i>
   <i type="logical" name="LTETE"> F  </i>
   <i type="logical" name="LTRIPLET"> F  </i>
   <i type="logical" name="LFXCEPS"> F  </i>
   <i type="logical" name="LFXHEG"> F  </i>
   <i type="int" name="NATURALO">     0</i>
   <i type="logical" name="L2ORDER"> F  </i>
   <i type="logical" name="LUSEW"> F  </i>
   <i name="ENCUTGW">     -2.00000000</i>
   <i name="ENCUTGWSOFT">     -2.00000000</i>
   <i name="ENCUTLF">     -1.00000000</i>
   <i type="int" name="LMAXMP2">    -1</i>
   <i name="SCISSOR">      0.00000000</i>
   <i type="int" name="NOMEGA">     0</i>
   <i type="int" name="NOMEGAR">     0</i>
   <i type="int" name="NBANDSGW">    -1</i>
   <i type="int" name="NBANDSO">    -1</i>
   <i type="int" name="NBANDSV">    -1</i>
   <i type="int" name="NELM">    60</i>
   <i type="int" name="NELMHF">     1</i>
   <i type="int" name="DIM">     3</i>
   <i type="int" name="ANTIRES">     0</i>
   <i name="OMEGAMAX">    -30.00000000</i>
   <i name="OMEGAMIN">    -30.00000000</i>
   <i name="OMEGATL">   -200.00000000</i>
   <i type="int" name="OMEGAGRID">     0</i>
   <i name="CSHIFT">     -0.10000000</i>
   <i type="logical" name="SELFENERGY"> F  </i>
   <i type="logical" name="LSPECTRAL"> F  </i>
   <i type="logical" name="LSPECTRALGW"> F  </i>
   <i type="logical" name="LSINGLES"> F  </i>
   <i type="logical" name="LFERMIGW"> F  </i>
   <i type="logical" name="ODDONLYGW"> F  </i>
   <i type="logical" name="EVENONLYGW"> F  </i>
   <i type="int" name="NKREDLFX">     1</i>
   <i type="int" name="NKREDLFY">     1</i>
   <i type="int" name="NKREDLFZ">     1</i>
   <i type="int" name="MAXMEM">  1800</i>
   <i type="int" name="TELESCOPE">     0</i>
   <i type="int" name="TAUPAR">     1</i>
   <i type="int" name="OMEGAPAR">    -1</i>
   <i name="LAMBDA">      1.00000000</i>
  </separator>
  <separator name="External order field" >
   <i name="OFIELD_KAPPA">      0.00000000</i>
   <v name="OFIELD_K">      0.00000000      0.00000000      0.00000000</v>
   <i name="OFIELD_Q6_NEAR">      0.00000000</i>
   <i name="OFIELD_Q6_FAR">      0.00000000</i>
   <i name="OFIELD_A">      0.00000000</i>
  </separator>
 </parameters>
 <atominfo>
  <atoms>       8 </atoms>
  <types>       1 </types>
  <array name="atoms" >
   <dimension dim="1">ion</dimension>
   <field type="string">element</field>
   <field type="int">atomtype</field>
   <set>
    <rc><c>Si</c><c>   1</c></rc>
    <rc><c>Si</c><c>   1</c></rc>
    <rc><c>Si</c><c>   1</c></rc>
    <rc><c>Si</c><c>   1</c></rc>
    <rc><c>Si</c><c>   1</c></rc>
    <rc><c>Si</c><c>   1</c></rc>
    <rc><c>Si</c><c>   1</c></rc>
    <rc><c>Si</c><c>   1</c></rc>
   </set>
  </array>
  <array name="atomtypes" >
   <dimension dim="1">type</dimension>
   <field type="int">atomspertype</field>
   <field type="string">element</field>
   <field>mass</field>
   <field>valence</field>
   <field type="string">pseudopotential</field>
   <set>
    <rc><c>   8</c><c>Si</c><c>     28.08500000</c><c>      4.00000000</c><c>  PAW_PBE Si 05Jan2001                  </c></rc>
   </set>
  </array>
 </atominfo>
 <structure name="initialpos" >
  <crystal>
   <varray name="basis" >
    <v>       5.43100000       0.00000000       0.00000000 </v>
    <v>       0.00000000       5.43100000       0.00000000 </v>
    <v>       0.00000000       0.00000000       5.43100000 </v>
   </varray>
   <i name="volume">    160.19147799 </i>
   <varray name="rec_basis" >
    <v>       0.18412815       0.00000000       0.00000000 </v>
    <v>       0.00000000       0.18412815       0.00000000 </v>
    <v>       0.00000000       0.00000000       0.18412815 </v>
   </varray>
  </crystal>
  <varray name="positions" >
   <v>       0.00000000       0.00000000       0.00000000 </v>
   <v>       0.00000000       0.50000000       0.50000000 </v>
   <v>       0.50000000       0.00000000       0.50000000 </v>
   <v>       0.50000000       0.50000000       0.00000000 </v>
   <v>       0.25000000       0.25000000       0.25000000 </v>
   <v>       0.75000000       0.75000000       0.25000000 </v>
   <v>       0.75000000       0.25000000       0.75000000 </v>
   <v>       0.25000000       0.75000000       0.75000000 </v>
  </varray>
 </structure>
 <calculation>
  <scstep>
   <time name="dav">    0.66    0.78</time>
   <time name="total">    0.68    0.84</time>
   <energy>
    <i name="alphaZ">     13.44915721 </i>
    <i name="ewald">   -914.08579262 </i>
    <i name="hartreedc">    -44.03749844 </i>
    <i name="XCdc">    -74.41615190 </i>
    <i name="pawpsdc">    704.99039692 </i>
    <i name="pawaedc">   -564.24414232 </i>
    <i name="eentropy">     -0.00893169 </i>
    <i name="bandstr">     93.13418357 </i>
    <i name="atom">    824.51874349 </i>
    <i name="e_fr_energy">     39.29996422 </i>
    <i name="e_wo_entrp">     39.30889591 </i>
    <i name="e_0_energy">     39.30443006 </i>
   </energy>
  </scstep>
  <scstep>
   <time name="dav">    0.50    0.53</time>
   <time name="total">    0.51    0.54</time>
   <energy>
    <i name="e_fr_energy">    -40.73996283 </i>
    <i name="e_wo_entrp">    -40.73996282 </i>
    <i name="e_0_energy">    -40.73996283 </i>
   </energy>
  </scstep>
  <scstep>
   <time name="dav">    0.53    0.53</time>
   <time name="total">    0.55    0.58</time>
   <energy>
    <i name="e_fr_energy">    -44.03591332 </i>
    <i name="e_wo_entrp">    -44.03591332 </i>
    <i name="e_0_energy">    -44.03591332 </i>
   </energy>
  </scstep>
  <scstep>
   <time name="dav">    0.51    0.51</time>
   <time name="total">    0.54    0.54</time>
   <energy>
    <i name="e_fr_energy">    -43.57828093 </i>
    <i name="e_wo_entrp">    -43.57828093 </i>
    <i name="e_0_energy">    -43.57828093 </i>
   </energy>
  </scstep>
  <scstep>
   <time name="dav">    0.47    0.47</time>
   <time name="total">    0.50    0.51</time>
   <energy>
    <i name="e_fr_energy">    -43.34736211 </i>
    <i name="e_wo_entrp">    -43.34736187 </i>
    <i name="e_0_energy">    -43.34736199 </i>
   </energy>
  </scstep>
  <scstep>
   <time name="dav">    0.51    0.51</time>
   <time name="total">    0.54    0.55</time>
   <energy>
    <i name="e_fr_energy">    -43.35243549 </i>
    <i name="e_wo_entrp">    -43.35243529 </i>
    <i name="e_0_energy">    -43.35243539 </i>
   </energy>
  </scstep>
  <scstep>
   <time name="dav">    0.48    0.48</time>
   <time name="total">    0.51    0.51</time>
   <energy>
    <i name="e_fr_energy">    -43.35447518 </i>
    <i name="e_wo_entrp">    -43.35447506 </i>
    <i name="e_0_energy">    -43.35447512 </i>
   </energy>
  </scstep>
  <scstep>
   <time name="dav">    0.52    0.61</time>
   <time name="total">    0.53    0.62</time>
   <energy>
    <i name="alphaZ">     13.44915721 </i>
    <i name="ewald">   -914.08579262 </i>
    <i name="hartreedc">    -59.62575627 </i>
    <i name="XCdc">    -71.85536747 </i>
    <i name="pawpsdc">   3661.85239355 </i>
    <i name="pawaedc">  -3522.00850834 </i>
    <i name="eentropy">     -0.00000013 </i>
    <i name="bandstr">     24.40060787 </i>
    <i name="atom">    824.51874349 </i>
    <i name="e_fr_energy">    -43.35452270 </i>
    <i name="e_wo_entrp">    -43.35452257 </i>
    <i name="e_0_energy">    -43.35452263 </i>
   </energy>
  </scstep>
  <structure>
   <crystal>
    <varray name="basis" >
     <v>       5.43100000       0.00000000       0.00000000 </v>
     <v>       0.00000000       5.43100000       0.00000000 </v>
     <v>       0.00000000       0.00000000       5.43100000 </v>
    </varray>
    <i name="volume">    160.19147799 </i>
    <varray name="rec_basis" >
     <v>       0.18412815       0.00000000       0.00000000 </v>
     <v>       0.00000000       0.18412815       0.00000000 </v>
     <v>       0.00000000       0.00000000       0.18412815 </v>
    </varray>
   </crystal>
   <varray name="positions" >
    <v>       0.00000000       0.00000000       0.00000000 </v>
    <v>       0.00000000       0.50000000       0.50000000 </v>
    <v>       0.50000000       0.00000000       0.50000000 </v>
    <v>       0.50000000       0.50000000       0.00000000 </v>
    <v>       0.25000000       0.25000000       0.25000000 </v>
    <v>       0.75000000       0.75000000       0.25000000 </v>
    <v>       0.75000000       0.25000000       0.75000000 </v>
    <v>       0.25000000       0.75000000       0.75000000 </v>
   </varray>
  </structure>
  <varray name="forces" >
   <v>      -0.00000000      -0.00000000      -0.00000000 </v>
   <v>      -0.00000000      -0.00000000      -0.00000000 </v>
   <v>      -0.00000000      -0.00000000       0.00000000 </v>
   <v>      -0.00000000       0.00000000      -0.00000000 </v>
   <v>       0.00000000      -0.00000000       0.00000000 </v>
   <v>       0.00000000       0.00000000       0.00000000 </v>
   <v>       0.00000000       0.00000000       0.00000000 </v>
   <v>      -0.00000000      -0.00000000       0.00000000 </v>
  </varray>
  <varray name="stress" >
   <v>      18.37571209       0.00000000       0.00000000 </v>
   <v>      -0.00000000      18.37571209       0.00000000 </v>
   <v>      -0.00000000      -0.00000000      18.37571209 </v>
  </varray>
  <energy>
   <i name="e_fr_energy">    -43.35452270 </i>
   <i name="e_wo_entrp">    -43.35452263 </i>
   <i name="e_0_energy">     -0.00000013 </i>
  </energy>
  <time name="totalsc">    4.80    5.18</time>
 </calculation>
 <calculation>
  <scstep>
   <time name="dav">    0.56    0.57</time>
   <time name="total">    0.57    0.58</time>
   <energy>
    <i name="alphaZ">     12.59331558 </i>
    <i name="ewald">   -894.26993668 </i>
    <i name="hartreedc">    -58.38570763 </i>
    <i name="XCdc">    -73.13916383 </i>
    <i name="pawpsdc">   3627.60333000 </i>
    <i name="pawaedc">  -3487.76108049 </i>
    <i name="eentropy">     -0.00000000 </i>
    <i name="bandstr">      5.47300573 </i>
    <i name="atom">    824.51874349 </i>
    <i name="e_fr_energy">    -43.36749384 </i>
    <i name="e_wo_entrp">    -43.36749384 </i>
    <i name="e_0_energy">    -43.36749384 </i>
   </energy>
  </scstep>
  <scstep>
   <time name="dav">    0.53    0.59</time>
   <time name="total">    0.53    0.60</time>
   <energy>
    <i name="e_fr_energy">    -43.37422255 </i>
    <i name="e_wo_entrp">    -43.37422255 </i>
    <i name="e_0_energy">    -43.37422255 </i>
   </energy>
  </scstep>
  <scstep>
   <time name="dav">    0.58    0.59</time>
   <time name="total">    0.61    0.62</time>
   <energy>
    <i name="e_fr_energy">    -43.37428493 </i>
    <i name="e_wo_entrp">    -43.37428493 </i>
    <i name="e_0_energy">    -43.37428493 </i>
   </energy>
  </scstep>
  <scstep>
   <time name="dav">    0.44    0.44</time>
   <time name="total">    0.47    0.48</time>
   <energy>
    <i name="e_fr_energy">    -43.30969818 </i>
    <i name="e_wo_entrp">    -43.30969818 </i>
    <i name="e_0_energy">    -43.30969818 </i>
   </energy>
  </scstep>
  <scstep>
   <time name="dav">    0.47    0.47</time>
   <time name="total">    0.50    0.51</time>
   <energy>
    <i name="e_fr_energy">    -43.27759152 </i>
    <i name="e_wo_entrp">    -43.27759151 </i>
    <i name="e_0_energy">    -43.27759152 </i>
   </energy>
  </scstep>
  <scstep>
   <time name="dav">    0.48    0.48</time>
   <time name="total">    0.51    0.51</time>
   <energy>
    <i name="e_fr_energy">    -43.27739943 </i>
    <i name="e_wo_entrp">    -43.27739943 </i>
    <i name="e_0_energy">    -43.27739943 </i>
   </energy>
  </scstep>
  <scstep>
   <time name="dav">    0.46    0.46</time>
   <time name="total">    0.47    0.47</time>
   <energy>
    <i name="alphaZ">     12.59331558 </i>
    <i name="ewald">   -894.26993668 </i>
    <i name="hartreedc">    -62.84388658 </i>
    <i name="XCdc">    -73.04270563 </i>
    <i name="pawpsdc">   3186.99212867 </i>
    <i name="pawaedc">  -3046.92950739 </i>
    <i name="eentropy">     -0.00000000 </i>
    <i name="bandstr">      9.70451833 </i>
    <i name="atom">    824.51874349 </i>
    <i name="e_fr_energy">    -43.27733021 </i>
    <i name="e_wo_entrp">    -43.27733021 </i>
    <i name="e_0_energy">    -43.27733021 </i>
   </energy>
  </scstep>
  <structure>
   <crystal>
    <varray name="basis" >
     <v>       5.55134388       0.00000000       0.00000000 </v>
     <v>      -0.00000000       5.55134388       0.00000000 </v>
     <v>      -0.00000000      -0.00000000       5.55134388 </v>
    </varray>
    <i name="volume">    171.07808963 </i>
    <varray name="rec_basis" >
     <v>       0.18013656       0.00000000       0.00000000 </v>
     <v>      -0.00000000       0.18013656       0.00000000 </v>
     <v>       0.00000000      -0.00000000       0.18013656 </v>
    </varray>
   </crystal>
   <varray name="positions" >
    <v>      -0.00000000      -0.00000000      -0.00000000 </v>
    <v>      -0.00000000       0.50000000       0.50000000 </v>
    <v>       0.50000000      -0.00000000       0.50000000 </v>
    <v>       0.50000000       0.50000000      -0.00000000 </v>
    <v>       0.25000000       0.25000000       0.25000000 </v>
    <v>       0.75000000       0.75000000       0.25000000 </v>
    <v>       0.75000000       0.25000000       0.75000000 </v>
    <v>       0.25000000       0.75000000       0.75000000 </v>
   </varray>
  </structure>
  <varray name="forces" >
   <v>      -0.00000000      -0.00000000       0.00000000 </v>
   <v>       0.00000000      -0.00000000      -0.00000000 </v>
   <v>      -0.00000000       0.00000000       0.00000000 </v>
   <v>       0.00000000       0.00000000       0.00000000 </v>
   <v>      -0.00000000      -0.00000000      -0.00000000 </v>
   <v>       0.00000000       0.00000000      -0.00000000 </v>
   <v>      -0.00000000       0.00000000      -0.00000000 </v>
   <v>      -0.00000000       0.00000000      -0.00000000 </v>
  </varray>
  <varray name="stress" >
   <v>     -37.58004819      -0.00000000      -0.00000000 </v>
   <v>       0.00000000     -37.58004819      -0.00000000 </v>
   <v>       0.00000000       0.00000000     -37.58004819 </v>
  </varray>
  <energy>
   <i name="e_fr_energy">    -43.27733021 </i>
   <i name="e_wo_entrp">    -43.27733021 </i>
   <i name="e_0_energy">     -0.00000000 </i>
  </energy>
  <time name="totalsc">    3.88    3.99</time>
 </calculation>
 <calculation>
  <scstep>
   <time name="dav">    0.46    0.47</time>
   <time name="total">    0.47    0.47</time>
   <energy>
    <i name="alphaZ">     13.18595890 </i>
    <i name="ewald">   -908.08361880 </i>
    <i name="hartreedc">    -63.82808968 </i>
    <i name="XCdc">    -72.15412871 </i>
    <i name="pawpsdc">   3215.95307453 </i>
    <i name="pawaedc">  -3075.89589133 </i>
    <i name="eentropy">     -0.00000035 </i>
    <i name="bandstr">     22.88788347 </i>
    <i name="atom">    824.51874349 </i>
    <i name="e_fr_energy">    -43.41606848 </i>
    <i name="e_wo_entrp">    -43.41606813 </i>
    <i name="e_0_energy">    -43.41606830 </i>
   </energy>
  </scstep>
  <scstep>
   <time name="dav">    0.50    0.50</time>
   <time name="total">    0.50    0.51</time>
   <energy>
    <i name="e_fr_energy">    -43.42022955 </i>
    <i name="e_wo_entrp">    -43.42022920 </i>
    <i name="e_0_energy">    -43.42022937 </i>
   </energy>
  </scstep>
  <scstep>
   <time name="dav">    0.48    0.48</time>
   <time name="total">    0.51    0.51</time>
   <energy>
    <i name="e_fr_energy">    -43.42025675 </i>
    <i name="e_wo_entrp">    -43.42025640 </i>
    <i name="e_0_energy">    -43.42025657 </i>
   </energy>
  </scstep>
  <scstep>
   <time name="dav">    0.43    0.43</time>
   <time name="total">    0.46    0.46</time>
   <energy>
    <i name="e_fr_energy">    -43.38793141 </i>
    <i name="e_wo_entrp">    -43.38793127 </i>
    <i name="e_0_energy">    -43.38793134 </i>
   </energy>
  </scstep>
  <scstep>
   <time name="dav">    0.46    0.47</time>
   <time name="total">    0.50    0.50</time>
   <energy>
    <i name="e_fr_energy">    -43.37205996 </i>
    <i name="e_wo_entrp">    -43.37205992 </i>
    <i name="e_0_energy">    -43.37205994 </i>
   </energy>
  </scstep>
  <scstep>
   <time name="dav">    0.50    0.50</time>
   <time name="total">    0.53    0.54</time>
   <energy>
    <i name="e_fr_energy">    -43.37204589 </i>
    <i name="e_wo_entrp">    -43.37204585 </i>
    <i name="e_0_energy">    -43.37204587 </i>
   </energy>
  </scstep>
  <scstep>
   <time name="dav">    0.37    0.37</time>
   <time name="total">    0.38    0.38</time>
   <energy>
    <i name="alphaZ">     13.18595890 </i>
    <i name="ewald">   -908.08361880 </i>
    <i name="hartreedc">    -60.61688821 </i>
    <i name="XCdc">    -72.21026691 </i>
    <i name="pawpsdc">   3509.60553125 </i>
    <i name="pawaedc">  -3369.69579368 </i>
    <i name="eentropy">     -0.00000004 </i>
    <i name="bandstr">     19.92435480 </i>
    <i name="atom">    824.51874349 </i>
    <i name="e_fr_energy">    -43.37197921 </i>
    <i name="e_wo_entrp">    -43.37197917 </i>
    <i name="e_0_energy">    -43.37197919 </i>
   </energy>
  </scstep>
  <structure>
   <crystal>
    <varray name="basis" >
     <v>       5.46689736       0.00000000       0.00000000 </v>
     <v>      -0.00000000       5.46689736       0.00000000 </v>
     <v>      -0.00000000      -0.00000000       5.46689736 </v>
    </varray>
    <i name="volume">    163.38897974 </i>
    <varray name="rec_basis" >
     <v>       0.18291911       0.00000000       0.00000000 </v>
     <v>      -0.00000000       0.18291911       0.00000000 </v>
     <v>       0.00000000      -0.00000000       0.18291911 </v>
    </varray>
   </crystal>
   <varray name="positions" >
    <v>      -0.00000000      -0.00000000      -0.00000000 </v>
    <v>      -0.00000000       0.50000000       0.50000000 </v>
    <v>       0.50000000      -0.00000000       0.50000000 </v>
    <v>       0.50000000       0.50000000      -0.00000000 </v>
    <v>       0.25000000       0.25000000       0.25000000 </v>
    <v>       0.75000000       0.75000000       0.25000000 </v>
    <v>       0.75000000       0.25000000       0.75000000 </v>
    <v>       0.25000000       0.75000000       0.75000000 </v>
   </varray>
  </structure>
  <varray name="forces" >
   <v>      -0.00000000       0.00000000      -0.00000000 </v>
   <v>      -0.00000000      -0.00000000      -0.00000000 </v>
   <v>      -0.00000000       0.00000000      -0.00000000 </v>
   <v>      -0.00000000       0.00000000      -0.00000000 </v>
   <v>       0.00000000      -0.00000000       0.00000000 </v>
   <v>       0.00000000      -0.00000000       0.00000000 </v>
   <v>       0.00000000      -0.00000000       0.00000000 </v>
   <v>       0.00000000      -0.00000000       0.00000000 </v>
  </varray>
  <varray name="stress" >
   <v>      -0.25104405       0.00000000      -0.00000000 </v>
   <v>      -0.00000000      -0.25104405       0.00000000 </v>
   <v>       0.00000000       0.00000000      -0.25104405 </v>
  </varray>
  <energy>
   <i name="e_fr_energy">    -43.37197921 </i>
   <i name="e_wo_entrp">    -43.37197919 </i>
   <i name="e_0_energy">     -0.00000004 </i>
  </energy>
  <time name="totalsc">    3.63    3.71</time>
  <eigenvalues>
   <array>
    <dimension dim="1">band</dimension>
    <dimension dim="2">kpoint</dimension>
    <dimension dim="3">spin</dimension>
    <field>eigene</field>
    <field>occ</field>
    <set>
     <set comment="spin 1">
      <set comment="kpoint 1">
       <r>   -6.1958    1.0000 </r>
       <r>   -2.1235    1.0000 </r>
       <r>   -2.1235    1.0000 </r>
       <r>   -2.1235    1.0000 </r>
       <r>   -2.1235    1.0000 </r>
       <r>   -2.1235    1.0000 </r>
       <r>   -2.1235    1.0000 </r>
       <r>    2.8294    1.0000 </r>
       <r>    2.8294    1.0000 </r>
       <r>    2.8294    1.0000 </r>
       <r>    2.8294    1.0000 </r>
       <r>    2.8294    1.0000 </r>
       <r>    2.8294    1.0000 </r>
       <r>    5.6293    1.0000 </r>
       <r>    5.6293    1.0000 </r>
       <r>    5.6293    1.0000 </r>
       <r>    6.3806    0.0000 </r>
       <r>    6.3806    0.0000 </r>
       <r>    6.3806    0.0000 </r>
       <r>    6.3806    0.0000 </r>
       <r>    6.3806    0.0000 </r>
       <r>    6.3806    0.0000 </r>
       <r>    8.1890    0.0000 </r>
       <r>    8.1890    0.0000 </r>
       <r>    8.1890    0.0000 </r>
      </set>
      <set comment="kpoint 2">
       <r>   -6.1603    1.0000 </r>
       <r>   -2.7923    1.0000 </r>
       <r>   -2.1122    1.0000 </r>
       <r>   -2.1122    1.0000 </r>
       <r>   -2.1122    1.0000 </r>
       <r>   -2.1122    1.0000 </r>
       <r>   -1.4122    1.0000 </r>
       <r>    2.7288    1.0000 </r>
       <r>    2.7288    1.0000 </r>
       <r>    2.7288    1.0000 </r>
       <r>    2.7288    1.0000 </r>
       <r>    2.8616    1.0000 </r>
       <r>    2.8616    1.0000 </r>
       <r>    5.3860    1.0000 </r>
       <r>    5.4844    1.0000 </r>
       <r>    5.4844    1.0000 </r>
       <r>    6.2653    0.0000 </r>
       <r>    6.5721    0.0000 </r>
       <r>    6.5721    0.0000 </r>
       <r>    6.5721    0.0000 </r>
       <r>    6.5721    0.0000 </r>
       <r>    6.5923    0.0000 </r>
       <r>    8.1011    0.0000 </r>
       <r>    8.3749    0.0000 </r>
       <r>    8.3749    0.0000 </r>
      </set>
      <set comment="kpoint 3">
       <r>   -6.0538    1.0000 </r>
       <r>   -3.4125    1.0000 </r>
       <r>   -2.0810    1.0000 </r>
       <r>   -2.0810    1.0000 </r>
       <r>   -2.0810    1.0000 </r>
       <r>   -2.0810    1.0000 </r>
       <r>   -0.6656    1.0000 </r>
       <r>    2.4888    1.0000 </r>
       <r>    2.4888    1.0000 </r>
       <r>    2.4888    1.0000 </r>
       <r>    2.4888    1.0000 </r>
       <r>    2.9577    1.0000 </r>
       <r>    2.9577    1.0000 </r>
       <r>    4.8091    1.0000 </r>
       <r>    5.1443    1.0000 </r>
       <r>    5.1443    1.0000 </r>
       <r>    6.2416    0.0000 </r>
       <r>    6.9045    0.0000 </r>
       <r>    7.0856    0.0000 </r>
       <r>    7.0856    0.0000 </r>
       <r>    7.0856    0.0000 </r>
       <r>    7.0856    0.0000 </r>
       <r>    7.8724    0.0000 </r>
       <r>    8.8460    0.0000 </r>
       <r>    8.8460    0.0000 </r>
      </set>
      <set comment="kpoint 4">
       <r>   -5.8767    1.0000 </r>
       <r>   -3.9788    1.0000 </r>
       <r>   -2.0384    1.0000 </r>
       <r>   -2.0384    1.0000 </r>
       <r>   -2.0384    1.0000 </r>
       <r>   -2.0384    1.0000 </r>
       <r>    0.1083    1.0000 </r>
       <r>    2.2185    1.0000 </r>
       <r>    2.2185    1.0000 </r>
       <r>    2.2185    1.0000 </r>
       <r>    2.2185    1.0000 </r>
       <r>    3.1168    1.0000 </r>
       <r>    3.1168    1.0000 </r>
       <r>    4.0883    1.0000 </r>
       <r>    4.7361    1.0000 </r>
       <r>    4.7361    1.0000 </r>
       <r>    6.3025    0.0000 </r>
       <r>    7.3192    0.0000 </r>
       <r>    7.5645    0.0000 </r>
       <r>    7.8156    0.0000 </r>
       <r>    7.8156    0.0000 </r>
       <r>    7.8156    0.0000 </r>
       <r>    7.8156    0.0000 </r>
       <r>    9.4715    0.0000 </r>
       <r>    9.4715    0.0000 </r>
      </set>
      <set comment="kpoint 5">
       <r>   -5.6300    1.0000 </r>
       <r>   -4.4868    1.0000 </r>
       <r>   -1.9974    1.0000 </r>
       <r>   -1.9974    1.0000 </r>
       <r>   -1.9974    1.0000 </r>
       <r>   -1.9974    1.0000 </r>
       <r>    0.9013    1.0000 </r>
       <r>    1.9986    1.0000 </r>
       <r>    1.9986    1.0000 </r>
       <r>    1.9986    1.0000 </r>
       <r>    1.9986    1.0000 </r>
       <r>    3.3111    1.0000 </r>
       <r>    3.3374    1.0000 </r>
       <r>    3.3374    1.0000 </r>
       <r>    4.3274    1.0000 </r>
       <r>    4.3274    1.0000 </r>
       <r>    6.4424    0.0000 </r>
       <r>    7.2345    0.0000 </r>
       <r>    7.8348    0.0000 </r>
       <r>    8.6858    0.0000 </r>
       <r>    8.6858    0.0000 </r>
       <r>    8.6858    0.0000 </r>
       <r>    8.6858    0.0000 </r>
       <r>    9.7084    0.0000 </r>
       <r>   10.1799    0.0000 </r>
      </set>
      <set comment="kpoint 6">
       <r>   -5.3150    1.0000 </r>
       <r>   -4.9332    1.0000 </r>
       <r>   -1.9719    1.0000 </r>
       <r>   -1.9719    1.0000 </r>
       <r>   -1.9719    1.0000 </r>
       <r>   -1.9719    1.0000 </r>
       <r>    1.7052    1.0000 </r>
       <r>    1.8771    1.0000 </r>
       <r>    1.8771    1.0000 </r>
       <r>    1.8771    1.0000 </r>
       <r>    1.8771    1.0000 </r>
       <r>    2.5116    1.0000 </r>
       <r>    3.6164    1.0000 </r>
       <r>    3.6164    1.0000 </r>
       <r>    3.9490    1.0000 </r>
       <r>    3.9490    1.0000 </r>
       <r>    6.6527    0.0000 </r>
       <r>    6.9221    0.0000 </r>
       <r>    8.4421    0.0000 </r>
       <r>    9.1027    0.0000 </r>
       <r>    9.6154    0.0000 </r>
       <r>    9.6154    0.0000 </r>
       <r>    9.6154    0.0000 </r>
       <r>    9.6154    0.0000 </r>
       <r>   10.8761    0.0000 </r>
      </set>
      <set comment="kpoint 7">
       <r>   -6.1248    1.0000 </r>
       <r>   -2.7739    1.0000 </r>
       <r>   -2.7739    1.0000 </r>
       <r>   -2.1581    1.0000 </r>
       <r>   -2.0462    1.0000 </r>
       <r>   -1.4109    1.0000 </r>
       <r>   -1.4109    1.0000 </r>
       <r>    2.4308    1.0000 </r>
       <r>    2.7458    1.0000 </r>
       <r>    2.7458    1.0000 </r>
       <r>    2.7804    1.0000 </r>
       <r>    2.7804    1.0000 </r>
       <r>    2.8863    1.0000 </r>
       <r>    4.9927    1.0000 </r>
       <r>    5.3410    1.0000 </r>
       <r>    5.5953    1.0000 </r>
       <r>    6.4461    0.0000 </r>
       <r>    6.4652    0.0000 </r>
       <r>    6.4652    0.0000 </r>
       <r>    6.7734    0.0000 </r>
       <r>    6.7734    0.0000 </r>
       <r>    7.0218    0.0000 </r>
       <r>    8.2609    0.0000 </r>
       <r>    8.3210    0.0000 </r>
       <r>    8.3735    0.0000 </r>
      </set>
      <set comment="kpoint 8">
       <r>   -6.0186    1.0000 </r>
       <r>   -3.3891    1.0000 </r>
       <r>   -2.7209    1.0000 </r>
       <r>   -2.1922    1.0000 </r>
       <r>   -1.9578    1.0000 </r>
       <r>   -1.4105    1.0000 </r>
       <r>   -0.6786    1.0000 </r>
       <r>    2.1017    1.0000 </r>
       <r>    2.4689    1.0000 </r>
       <r>    2.5890    1.0000 </r>
       <r>    2.8304    1.0000 </r>
       <r>    2.8426    1.0000 </r>
       <r>    2.9011    1.0000 </r>
       <r>    4.4157    1.0000 </r>
       <r>    5.0000    1.0000 </r>
       <r>    5.3941    1.0000 </r>
       <r>    6.4478    0.0000 </r>
       <r>    6.7013    0.0000 </r>
       <r>    6.9951    0.0000 </r>
       <r>    7.0737    0.0000 </r>
       <r>    7.2657    0.0000 </r>
       <r>    7.6915    0.0000 </r>
       <r>    8.0649    0.0000 </r>
       <r>    8.6277    0.0000 </r>
       <r>    8.7723    0.0000 </r>
      </set>
      <set comment="kpoint 9">
       <r>   -5.8420    1.0000 </r>
       <r>   -3.9518    1.0000 </r>
       <r>   -2.6394    1.0000 </r>
       <r>   -2.2266    1.0000 </r>
       <r>   -1.8501    1.0000 </r>
       <r>   -1.4212    1.0000 </r>
       <r>    0.0746    1.0000 </r>
       <r>    1.8237    1.0000 </r>
       <r>    2.1488    1.0000 </r>
       <r>    2.3850    1.0000 </r>
       <r>    2.6600    1.0000 </r>
       <r>    2.9810    1.0000 </r>
       <r>    3.0913    1.0000 </r>
       <r>    3.7679    1.0000 </r>
       <r>    4.5899    1.0000 </r>
       <r>    4.9817    1.0000 </r>
       <r>    6.5133    0.0000 </r>
       <r>    7.2735    0.0000 </r>
       <r>    7.4748    0.0000 </r>
       <r>    7.7387    0.0000 </r>
       <r>    7.7647    0.0000 </r>
       <r>    7.9760    0.0000 </r>
       <r>    8.5086    0.0000 </r>
       <r>    9.1233    0.0000 </r>
       <r>    9.4061    0.0000 </r>
      </set>
      <set comment="kpoint 10">
       <r>   -5.5960    1.0000 </r>
       <r>   -4.4572    1.0000 </r>
       <r>   -2.5400    1.0000 </r>
       <r>   -2.2747    1.0000 </r>
       <r>   -1.7317    1.0000 </r>
       <r>   -1.4551    1.0000 </r>
       <r>    0.8381    1.0000 </r>
       <r>    1.6459    1.0000 </r>
       <r>    1.8672    1.0000 </r>
       <r>    2.2439    1.0000 </r>
       <r>    2.4461    1.0000 </r>
       <r>    3.0754    1.0000 </r>
       <r>    3.1956    1.0000 </r>
       <r>    3.3508    1.0000 </r>
       <r>    4.1800    1.0000 </r>
       <r>    4.5149    1.0000 </r>
       <r>    6.6552    0.0000 </r>
       <r>    7.4410    0.0000 </r>
       <r>    7.9767    0.0000 </r>
       <r>    8.0582    0.0000 </r>
       <r>    8.6198    0.0000 </r>
       <r>    8.8291    0.0000 </r>
       <r>    9.4230    0.0000 </r>
       <r>    9.5811    0.0000 </r>
       <r>   10.1254    0.0000 </r>
      </set>
      <set comment="kpoint 11">
       <r>   -5.2820    1.0000 </r>
       <r>   -4.9016    1.0000 </r>
       <r>   -2.4369    1.0000 </r>
       <r>   -2.3450    1.0000 </r>
       <r>   -1.6168    1.0000 </r>
       <r>   -1.5208    1.0000 </r>
       <r>    1.5940    1.0000 </r>
       <r>    1.6006    1.0000 </r>
       <r>    1.6724    1.0000 </r>
       <r>    2.2058    1.0000 </r>
       <r>    2.2795    1.0000 </r>
       <r>    2.3498    1.0000 </r>
       <r>    3.4709    1.0000 </r>
       <r>    3.6786    1.0000 </r>
       <r>    3.8018    1.0000 </r>
       <r>    4.0705    1.0000 </r>
       <r>    6.8655    0.0000 </r>
       <r>    7.1330    0.0000 </r>
       <r>    8.5687    0.0000 </r>
       <r>    8.9674    0.0000 </r>
       <r>    9.2031    0.0000 </r>
       <r>    9.5815    0.0000 </r>
       <r>    9.6332    0.0000 </r>
       <r>   10.2450    0.0000 </r>
       <r>   10.2649    0.0000 </r>
      </set>
      <set comment="kpoint 12">
       <r>   -5.9131    1.0000 </r>
       <r>   -3.3204    1.0000 </r>
       <r>   -3.3204    1.0000 </r>
       <r>   -2.3032    1.0000 </r>
       <r>   -1.8148    1.0000 </r>
       <r>   -0.7214    1.0000 </r>
       <r>   -0.7214    1.0000 </r>
       <r>    1.7644    1.0000 </r>
       <r>    2.5261    1.0000 </r>
       <r>    2.5261    1.0000 </r>
       <r>    2.7728    1.0000 </r>
       <r>    2.7728    1.0000 </r>
       <r>    3.0544    1.0000 </r>
       <r>    3.8390    1.0000 </r>
       <r>    4.6558    1.0000 </r>
       <r>    5.4857    1.0000 </r>
       <r>    6.6405    0.0000 </r>
       <r>    6.9889    0.0000 </r>
       <r>    6.9889    0.0000 </r>
       <r>    7.5401    0.0000 </r>
       <r>    7.5401    0.0000 </r>
       <r>    8.4487    0.0000 </r>
       <r>    8.4806    0.0000 </r>
       <r>    8.5196    0.0000 </r>
       <r>    8.6436    0.0000 </r>
      </set>
      <set comment="kpoint 13">
       <r>   -5.7380    1.0000 </r>
       <r>   -3.8718    1.0000 </r>
       <r>   -3.2108    1.0000 </r>
       <r>   -2.4266    1.0000 </r>
       <r>   -1.6498    1.0000 </r>
       <r>   -0.8020    1.0000 </r>
       <r>   -0.0269    1.0000 </r>
       <r>    1.5272    1.0000 </r>
       <r>    2.1699    1.0000 </r>
       <r>    2.6535    1.0000 </r>
       <r>    2.6570    1.0000 </r>
       <r>    3.0425    1.0000 </r>
       <r>    3.0650    1.0000 </r>
       <r>    3.2315    1.0000 </r>
       <r>    4.2419    1.0000 </r>
       <r>    5.2528    1.0000 </r>
       <r>    6.9547    0.0000 </r>
       <r>    7.0610    0.0000 </r>
       <r>    7.7409    0.0000 </r>
       <r>    7.9124    0.0000 </r>
       <r>    8.2256    0.0000 </r>
       <r>    8.2692    0.0000 </r>
       <r>    8.7479    0.0000 </r>
       <r>    9.2309    0.0000 </r>
       <r>    9.3136    0.0000 </r>
      </set>
      <set comment="kpoint 14">
       <r>   -5.4943    1.0000 </r>
       <r>   -4.3690    1.0000 </r>
       <r>   -3.0682    1.0000 </r>
       <r>   -2.5703    1.0000 </r>
       <r>   -1.4663    1.0000 </r>
       <r>   -0.9256    1.0000 </r>
       <r>    0.6602    1.0000 </r>
       <r>    1.4169    1.0000 </r>
       <r>    1.8422    1.0000 </r>
       <r>    2.6039    1.0000 </r>
       <r>    2.6114    1.0000 </r>
       <r>    2.8582    1.0000 </r>
       <r>    2.9359    1.0000 </r>
       <r>    3.3971    1.0000 </r>
       <r>    3.8299    1.0000 </r>
       <r>    4.8170    1.0000 </r>
       <r>    7.2049    0.0000 </r>
       <r>    7.5789    0.0000 </r>
       <r>    7.9657    0.0000 </r>
       <r>    8.3821    0.0000 </r>
       <r>    8.6261    0.0000 </r>
       <r>    9.0520    0.0000 </r>
       <r>    9.1885    0.0000 </r>
       <r>    9.9757    0.0000 </r>
       <r>   10.2428    0.0000 </r>
      </set>
      <set comment="kpoint 15">
       <r>   -5.1834    1.0000 </r>
       <r>   -4.8074    1.0000 </r>
       <r>   -2.9040    1.0000 </r>
       <r>   -2.7330    1.0000 </r>
       <r>   -1.2738    1.0000 </r>
       <r>   -1.0876    1.0000 </r>
       <r>    1.3300    1.0000 </r>
       <r>    1.4406    1.0000 </r>
       <r>    1.5892    1.0000 </r>
       <r>    1.9792    1.0000 </r>
       <r>    2.6470    1.0000 </r>
       <r>    2.7715    1.0000 </r>
       <r>    3.1252    1.0000 </r>
       <r>    3.4522    1.0000 </r>
       <r>    3.8287    1.0000 </r>
       <r>    4.3161    1.0000 </r>
       <r>    7.4118    0.0000 </r>
       <r>    7.6712    0.0000 </r>
       <r>    8.4054    0.0000 </r>
       <r>    8.9337    0.0000 </r>
       <r>    9.3165    0.0000 </r>
       <r>    9.4346    0.0000 </r>
       <r>    9.5973    0.0000 </r>
       <r>   10.0757    0.0000 </r>
       <r>   10.1459    0.0000 </r>
      </set>
      <set comment="kpoint 16">
       <r>   -5.5656    1.0000 </r>
       <r>   -3.7419    1.0000 </r>
       <r>   -3.7419    1.0000 </r>
       <r>   -2.6456    1.0000 </r>
       <r>   -1.4303    1.0000 </r>
       <r>   -0.1937    1.0000 </r>
       <r>   -0.1937    1.0000 </r>
       <r>    1.3568    1.0000 </r>
       <r>    2.2751    1.0000 </r>
       <r>    2.2751    1.0000 </r>
       <r>    2.6649    1.0000 </r>
       <r>    3.0234    1.0000 </r>
       <r>    3.0234    1.0000 </r>
       <r>    3.3253    1.0000 </r>
       <r>    3.8247    1.0000 </r>
       <r>    5.2743    1.0000 </r>
       <r>    6.9534    0.0000 </r>
       <r>    7.8161    0.0000 </r>
       <r>    7.8161    0.0000 </r>
       <r>    8.5681    0.0000 </r>
       <r>    8.5681    0.0000 </r>
       <r>    8.6190    0.0000 </r>
       <r>    8.8458    0.0000 </r>
       <r>    9.0864    0.0000 </r>
       <r>   10.2026    0.0000 </r>
      </set>
      <set comment="kpoint 17">
       <r>   -5.3258    1.0000 </r>
       <r>   -4.2245    1.0000 </r>
       <r>   -3.5678    1.0000 </r>
       <r>   -2.8819    1.0000 </r>
       <r>   -1.1896    1.0000 </r>
       <r>   -0.4141    1.0000 </r>
       <r>    0.3965    1.0000 </r>
       <r>    1.3211    1.0000 </r>
       <r>    1.9145    1.0000 </r>
       <r>    2.0973    1.0000 </r>
       <r>    2.4587    1.0000 </r>
       <r>    3.0666    1.0000 </r>
       <r>    3.3839    1.0000 </r>
       <r>    3.4112    1.0000 </r>
       <r>    3.4832    1.0000 </r>
       <r>    5.0015    1.0000 </r>
       <r>    7.3177    0.0000 </r>
       <r>    7.9569    0.0000 </r>
       <r>    8.6675    0.0000 </r>
       <r>    8.6993    0.0000 </r>
       <r>    8.7850    0.0000 </r>
       <r>    9.0028    0.0000 </r>
       <r>    9.3492    0.0000 </r>
       <r>    9.7665    0.0000 </r>
       <r>    9.8894    0.0000 </r>
      </set>
      <set comment="kpoint 18">
       <r>   -5.0205    1.0000 </r>
       <r>   -4.6522    1.0000 </r>
       <r>   -3.3580    1.0000 </r>
       <r>   -3.1244    1.0000 </r>
       <r>   -0.9318    1.0000 </r>
       <r>   -0.6674    1.0000 </r>
       <r>    0.9698    1.0000 </r>
       <r>    1.4134    1.0000 </r>
       <r>    1.5339    1.0000 </r>
       <r>    1.6183    1.0000 </r>
       <r>    2.7145    1.0000 </r>
       <r>    3.0355    1.0000 </r>
       <r>    3.1703    1.0000 </r>
       <r>    3.2993    1.0000 </r>
       <r>    4.0047    1.0000 </r>
       <r>    4.5379    1.0000 </r>
       <r>    7.9818    0.0000 </r>
       <r>    8.1553    0.0000 </r>
       <r>    8.3987    0.0000 </r>
       <r>    8.8351    0.0000 </r>
       <r>    9.1572    0.0000 </r>
       <r>    9.4717    0.0000 </r>
       <r>    9.6685    0.0000 </r>
       <r>    9.7529    0.0000 </r>
       <r>   10.1833    0.0000 </r>
      </set>
      <set comment="kpoint 19">
       <r>   -5.0920    1.0000 </r>
       <r>   -4.0276    1.0000 </r>
       <r>   -4.0276    1.0000 </r>
       <r>   -3.1981    1.0000 </r>
       <r>   -0.8947    1.0000 </r>
       <r>    0.0829    1.0000 </r>
       <r>    0.0829    1.0000 </r>
       <r>    1.3536    1.0000 </r>
       <r>    1.5797    1.0000 </r>
       <r>    2.0753    1.0000 </r>
       <r>    2.0753    1.0000 </r>
       <r>    2.9989    1.0000 </r>
       <r>    3.6013    1.0000 </r>
       <r>    3.6013    1.0000 </r>
       <r>    3.6836    1.0000 </r>
       <r>    4.9517    1.0000 </r>
       <r>    7.3653    0.0000 </r>
       <r>    8.5715    0.0000 </r>
       <r>    8.8322    0.0000 </r>
       <r>    8.8322    0.0000 </r>
       <r>    9.3025    0.0000 </r>
       <r>    9.3025    0.0000 </r>
       <r>    9.3553    0.0000 </r>
       <r>    9.6471    0.0000 </r>
       <r>    9.7995    0.0000 </r>
      </set>
      <set comment="kpoint 20">
       <r>   -4.7952    1.0000 </r>
       <r>   -4.4388    1.0000 </r>
       <r>   -3.7844    1.0000 </r>
       <r>   -3.5039    1.0000 </r>
       <r>   -0.5798    1.0000 </r>
       <r>   -0.2497    1.0000 </r>
       <r>    0.5749    1.0000 </r>
       <r>    1.0718    1.0000 </r>
       <r>    1.5014    1.0000 </r>
       <r>    1.7482    1.0000 </r>
       <r>    2.3160    1.0000 </r>
       <r>    2.6278    1.0000 </r>
       <r>    3.7207    1.0000 </r>
       <r>    3.7783    1.0000 </r>
       <r>    4.1542    1.0000 </r>
       <r>    4.6414    1.0000 </r>
       <r>    7.7639    0.0000 </r>
       <r>    8.4462    0.0000 </r>
       <r>    8.6210    0.0000 </r>
       <r>    8.8920    0.0000 </r>
       <r>    9.0152    0.0000 </r>
       <r>    9.2316    0.0000 </r>
       <r>    9.7891    0.0000 </r>
       <r>   10.2691    0.0000 </r>
       <r>   10.4054    0.0000 </r>
      </set>
      <set comment="kpoint 21">
       <r>   -4.5107    1.0000 </r>
       <r>   -4.1716    1.0000 </r>
       <r>   -4.1716    1.0000 </r>
       <r>   -3.8570    1.0000 </r>
       <r>   -0.2109    1.0000 </r>
       <r>    0.1760    1.0000 </r>
       <r>    0.1760    1.0000 </r>
       <r>    0.6164    1.0000 </r>
       <r>    1.6908    1.0000 </r>
       <r>    1.9676    1.0000 </r>
       <r>    1.9676    1.0000 </r>
       <r>    2.2652    1.0000 </r>
       <r>    4.1031    1.0000 </r>
       <r>    4.2142    1.0000 </r>
       <r>    4.2142    1.0000 </r>
       <r>    4.5436    1.0000 </r>
       <r>    7.8366    0.0000 </r>
       <r>    8.2357    0.0000 </r>
       <r>    8.2357    0.0000 </r>
       <r>    8.2839    0.0000 </r>
       <r>    9.9455    0.0000 </r>
       <r>    9.9455    0.0000 </r>
       <r>   10.0061    0.0000 </r>
       <r>   10.3324    0.0000 </r>
       <r>   10.7952    0.0000 </r>
      </set>
      <set comment="kpoint 22">
       <r>   -6.0895    1.0000 </r>
       <r>   -2.7586    1.0000 </r>
       <r>   -2.7586    1.0000 </r>
       <r>   -2.7586    1.0000 </r>
       <r>   -1.4098    1.0000 </r>
       <r>   -1.4098    1.0000 </r>
       <r>   -1.4098    1.0000 </r>
       <r>    2.4714    1.0000 </r>
       <r>    2.4714    1.0000 </r>
       <r>    2.4714    1.0000 </r>
       <r>    2.9180    1.0000 </r>
       <r>    2.9180    1.0000 </r>
       <r>    2.9180    1.0000 </r>
       <r>    4.6421    1.0000 </r>
       <r>    5.4636    1.0000 </r>
       <r>    5.4636    1.0000 </r>
       <r>    6.4591    0.0000 </r>
       <r>    6.4591    0.0000 </r>
       <r>    6.4591    0.0000 </r>
       <r>    7.1021    0.0000 </r>
       <r>    7.1021    0.0000 </r>
       <r>    7.1021    0.0000 </r>
       <r>    8.1790    0.0000 </r>
       <r>    8.4296    0.0000 </r>
       <r>    8.4296    0.0000 </r>
      </set>
      <set comment="kpoint 23">
       <r>   -5.9835    1.0000 </r>
       <r>   -3.3672    1.0000 </r>
       <r>   -2.7156    1.0000 </r>
       <r>   -2.7156    1.0000 </r>
       <r>   -1.4088    1.0000 </r>
       <r>   -1.4088    1.0000 </r>
       <r>   -0.6951    1.0000 </r>
       <r>    2.1502    1.0000 </r>
       <r>    2.1502    1.0000 </r>
       <r>    2.5938    1.0000 </r>
       <r>    2.8788    1.0000 </r>
       <r>    2.8788    1.0000 </r>
       <r>    3.0131    1.0000 </r>
       <r>    4.0789    1.0000 </r>
       <r>    5.1450    1.0000 </r>
       <r>    5.3352    1.0000 </r>
       <r>    6.5104    0.0000 </r>
       <r>    6.7312    0.0000 </r>
       <r>    6.7312    0.0000 </r>
       <r>    7.3305    0.0000 </r>
       <r>    7.7516    0.0000 </r>
       <r>    7.7516    0.0000 </r>
       <r>    8.1448    0.0000 </r>
       <r>    8.4488    0.0000 </r>
       <r>    8.8593    0.0000 </r>
      </set>
      <set comment="kpoint 24">
       <r>   -5.8074    1.0000 </r>
       <r>   -3.9256    1.0000 </r>
       <r>   -2.6549    1.0000 </r>
       <r>   -2.6549    1.0000 </r>
       <r>   -1.4125    1.0000 </r>
       <r>   -1.4125    1.0000 </r>
       <r>    0.0340    1.0000 </r>
       <r>    1.8757    1.0000 </r>
       <r>    1.8757    1.0000 </r>
       <r>    2.7110    1.0000 </r>
       <r>    2.7110    1.0000 </r>
       <r>    2.7990    1.0000 </r>
       <r>    3.1703    1.0000 </r>
       <r>    3.4680    1.0000 </r>
       <r>    4.7543    1.0000 </r>
       <r>    4.9283    1.0000 </r>
       <r>    6.6168    0.0000 </r>
       <r>    7.3066    0.0000 </r>
       <r>    7.3066    0.0000 </r>
       <r>    7.6862    0.0000 </r>
       <r>    7.9066    0.0000 </r>
       <r>    8.5600    0.0000 </r>
       <r>    8.5600    0.0000 </r>
       <r>    8.8735    0.0000 </r>
       <r>    9.4323    0.0000 </r>
      </set>
      <set comment="kpoint 25">
       <r>   -5.5622    1.0000 </r>
       <r>   -4.4281    1.0000 </r>
       <r>   -2.5936    1.0000 </r>
       <r>   -2.5936    1.0000 </r>
       <r>   -1.4227    1.0000 </r>
       <r>   -1.4227    1.0000 </r>
       <r>    0.7631    1.0000 </r>
       <r>    1.6880    1.0000 </r>
       <r>    1.6880    1.0000 </r>
       <r>    2.5264    1.0000 </r>
       <r>    2.5264    1.0000 </r>
       <r>    2.8314    1.0000 </r>
       <r>    3.0885    1.0000 </r>
       <r>    3.3879    1.0000 </r>
       <r>    4.3581    1.0000 </r>
       <r>    4.4179    1.0000 </r>
       <r>    6.7851    0.0000 </r>
       <r>    7.5952    0.0000 </r>
       <r>    8.0901    0.0000 </r>
       <r>    8.0901    0.0000 </r>
       <r>    8.1552    0.0000 </r>
       <r>    9.4252    0.0000 </r>
       <r>    9.4663    0.0000 </r>
       <r>    9.4663    0.0000 </r>
       <r>   10.0767    0.0000 </r>
      </set>
      <set comment="kpoint 26">
       <r>   -5.2493    1.0000 </r>
       <r>   -4.8704    1.0000 </r>
       <r>   -2.5539    1.0000 </r>
       <r>   -2.5539    1.0000 </r>
       <r>   -1.4326    1.0000 </r>
       <r>   -1.4326    1.0000 </r>
       <r>    1.4786    1.0000 </r>
       <r>    1.5967    1.0000 </r>
       <r>    1.5967    1.0000 </r>
       <r>    2.1691    1.0000 </r>
       <r>    2.4107    1.0000 </r>
       <r>    2.4107    1.0000 </r>
       <r>    3.4619    1.0000 </r>
       <r>    3.6625    1.0000 </r>
       <r>    3.9121    1.0000 </r>
       <r>    3.9888    1.0000 </r>
       <r>    7.0113    0.0000 </r>
       <r>    7.2868    0.0000 </r>
       <r>    8.7203    0.0000 </r>
       <r>    8.9960    0.0000 </r>
       <r>    8.9960    0.0000 </r>
       <r>    9.3140    0.0000 </r>
       <r>    9.9745    0.0000 </r>
       <r>    9.9745    0.0000 </r>
       <r>   10.4632    0.0000 </r>
      </set>
      <set comment="kpoint 27">
       <r>   -5.8783    1.0000 </r>
       <r>   -3.3033    1.0000 </r>
       <r>   -3.3033    1.0000 </r>
       <r>   -2.7058    1.0000 </r>
       <r>   -1.4011    1.0000 </r>
       <r>   -0.7469    1.0000 </r>
       <r>   -0.7469    1.0000 </r>
       <r>    1.8320    1.0000 </r>
       <r>    2.2952    1.0000 </r>
       <r>    2.2952    1.0000 </r>
       <r>    2.9882    1.0000 </r>
       <r>    2.9882    1.0000 </r>
       <r>    3.0850    1.0000 </r>
       <r>    3.5236    1.0000 </r>
       <r>    4.8959    1.0000 </r>
       <r>    5.3854    1.0000 </r>
       <r>    6.6801    0.0000 </r>
       <r>    6.8202    0.0000 </r>
       <r>    6.8202    0.0000 </r>
       <r>    7.9312    0.0000 </r>
       <r>    7.9312    0.0000 </r>
       <r>    8.1422    0.0000 </r>
       <r>    8.4977    0.0000 </r>
       <r>    8.5958    0.0000 </r>
       <r>    8.8810    0.0000 </r>
      </set>
      <set comment="kpoint 28">
       <r>   -5.7039    1.0000 </r>
       <r>   -3.8484    1.0000 </r>
       <r>   -3.2034    1.0000 </r>
       <r>   -2.7083    1.0000 </r>
       <r>   -1.3790    1.0000 </r>
       <r>   -0.8377    1.0000 </r>
       <r>   -0.0860    1.0000 </r>
       <r>    1.6138    1.0000 </r>
       <r>    2.0269    1.0000 </r>
       <r>    2.5340    1.0000 </r>
       <r>    2.8677    1.0000 </r>
       <r>    2.9403    1.0000 </r>
       <r>    3.0990    1.0000 </r>
       <r>    3.1737    1.0000 </r>
       <r>    4.4964    1.0000 </r>
       <r>    5.1661    1.0000 </r>
       <r>    6.9671    0.0000 </r>
       <r>    6.9947    0.0000 </r>
       <r>    7.4038    0.0000 </r>
       <r>    8.1896    0.0000 </r>
       <r>    8.2291    0.0000 </r>
       <r>    8.6537    0.0000 </r>
       <r>    8.7152    0.0000 </r>
       <r>    9.3182    0.0000 </r>
       <r>    9.3575    0.0000 </r>
      </set>
      <set comment="kpoint 29">
       <r>   -5.4611    1.0000 </r>
       <r>   -4.3416    1.0000 </r>
       <r>   -3.0784    1.0000 </r>
       <r>   -2.7448    1.0000 </r>
       <r>   -1.3267    1.0000 </r>
       <r>   -0.9629    1.0000 </r>
       <r>    0.5571    1.0000 </r>
       <r>    1.5158    1.0000 </r>
       <r>    1.8079    1.0000 </r>
       <r>    2.3562    1.0000 </r>
       <r>    2.7651    1.0000 </r>
       <r>    2.8560    1.0000 </r>
       <r>    2.9816    1.0000 </r>
       <r>    3.4419    1.0000 </r>
       <r>    4.0710    1.0000 </r>
       <r>    4.7337    1.0000 </r>
       <r>    7.1677    0.0000 </r>
       <r>    7.6160    0.0000 </r>
       <r>    7.9875    0.0000 </r>
       <r>    8.1855    0.0000 </r>
       <r>    8.6407    0.0000 </r>
       <r>    9.0707    0.0000 </r>
       <r>    9.5925    0.0000 </r>
       <r>    9.9253    0.0000 </r>
       <r>   10.2718    0.0000 </r>
      </set>
      <set comment="kpoint 30">
       <r>   -5.1515    1.0000 </r>
       <r>   -4.7774    1.0000 </r>
       <r>   -2.9453    1.0000 </r>
       <r>   -2.8267    1.0000 </r>
       <r>   -1.2329    1.0000 </r>
       <r>   -1.1038    1.0000 </r>
       <r>    1.1751    1.0000 </r>
       <r>    1.5321    1.0000 </r>
       <r>    1.6386    1.0000 </r>
       <r>    1.7710    1.0000 </r>
       <r>    2.7529    1.0000 </r>
       <r>    2.8394    1.0000 </r>
       <r>    3.2372    1.0000 </r>
       <r>    3.6479    1.0000 </r>
       <r>    3.8012    1.0000 </r>
       <r>    4.2464    1.0000 </r>
       <r>    7.4154    0.0000 </r>
       <r>    7.6978    0.0000 </r>
       <r>    8.4392    0.0000 </r>
       <r>    9.0734    0.0000 </r>
       <r>    9.1453    0.0000 </r>
       <r>    9.4200    0.0000 </r>
       <r>    9.5138    0.0000 </r>
       <r>   10.0787    0.0000 </r>
       <r>   10.1003    0.0000 </r>
      </set>
      <set comment="kpoint 31">
       <r>   -5.5322    1.0000 </r>
       <r>   -3.7240    1.0000 </r>
       <r>   -3.7240    1.0000 </r>
       <r>   -2.8125    1.0000 </r>
       <r>   -1.3028    1.0000 </r>
       <r>   -0.2747    1.0000 </r>
       <r>   -0.2747    1.0000 </r>
       <r>    1.4752    1.0000 </r>
       <r>    2.2614    1.0000 </r>
       <r>    2.2614    1.0000 </r>
       <r>    2.3859    1.0000 </r>
       <r>    3.1378    1.0000 </r>
       <r>    3.1378    1.0000 </r>
       <r>    3.3535    1.0000 </r>
       <r>    4.0965    1.0000 </r>
       <r>    5.2145    1.0000 </r>
       <r>    6.9949    0.0000 </r>
       <r>    7.5612    0.0000 </r>
       <r>    7.5612    0.0000 </r>
       <r>    8.2870    0.0000 </r>
       <r>    8.8789    0.0000 </r>
       <r>    8.9755    0.0000 </r>
       <r>    8.9755    0.0000 </r>
       <r>    9.2259    0.0000 </r>
       <r>   10.2427    0.0000 </r>
      </set>
      <set comment="kpoint 32">
       <r>   -5.2936    1.0000 </r>
       <r>   -4.2004    1.0000 </r>
       <r>   -3.5595    1.0000 </r>
       <r>   -2.9691    1.0000 </r>
       <r>   -1.1703    1.0000 </r>
       <r>   -0.5079    1.0000 </r>
       <r>    0.2658    1.0000 </r>
       <r>    1.4646    1.0000 </r>
       <r>    1.8405    1.0000 </r>
       <r>    1.9942    1.0000 </r>
       <r>    2.5573    1.0000 </r>
       <r>    3.1471    1.0000 </r>
       <r>    3.4143    1.0000 </r>
       <r>    3.5218    1.0000 </r>
       <r>    3.6771    1.0000 </r>
       <r>    4.9550    1.0000 </r>
       <r>    7.3567    0.0000 </r>
       <r>    7.7702    0.0000 </r>
       <r>    8.3390    0.0000 </r>
       <r>    8.3961    0.0000 </r>
       <r>    8.8753    0.0000 </r>
       <r>    9.3423    0.0000 </r>
       <r>    9.6996    0.0000 </r>
       <r>    9.7135    0.0000 </r>
       <r>   10.0159    0.0000 </r>
      </set>
      <set comment="kpoint 33">
       <r>   -4.9900    1.0000 </r>
       <r>   -4.6243    1.0000 </r>
       <r>   -3.3665    1.0000 </r>
       <r>   -3.1621    1.0000 </r>
       <r>   -0.9826    1.0000 </r>
       <r>   -0.7540    1.0000 </r>
       <r>    0.7896    1.0000 </r>
       <r>    1.3103    1.0000 </r>
       <r>    1.5655    1.0000 </r>
       <r>    1.7522    1.0000 </r>
       <r>    2.8971    1.0000 </r>
       <r>    3.2249    1.0000 </r>
       <r>    3.2726    1.0000 </r>
       <r>    3.3382    1.0000 </r>
       <r>    3.9956    1.0000 </r>
       <r>    4.5036    1.0000 </r>
       <r>    8.0155    0.0000 </r>
       <r>    8.0169    0.0000 </r>
       <r>    8.2698    0.0000 </r>
       <r>    8.8631    0.0000 </r>
       <r>    9.1517    0.0000 </r>
       <r>    9.2485    0.0000 </r>
       <r>    9.6340    0.0000 </r>
       <r>    9.8545    0.0000 </r>
       <r>   10.2335    0.0000 </r>
      </set>
      <set comment="kpoint 34">
       <r>   -5.0614    1.0000 </r>
       <r>   -4.0093    1.0000 </r>
       <r>   -4.0093    1.0000 </r>
       <r>   -3.2350    1.0000 </r>
       <r>   -0.9576    1.0000 </r>
       <r>   -0.0628    1.0000 </r>
       <r>   -0.0628    1.0000 </r>
       <r>    1.3330    1.0000 </r>
       <r>    1.5313    1.0000 </r>
       <r>    2.2388    1.0000 </r>
       <r>    2.2388    1.0000 </r>
       <r>    3.2696    1.0000 </r>
       <r>    3.6330    1.0000 </r>
       <r>    3.6330    1.0000 </r>
       <r>    3.7074    1.0000 </r>
       <r>    4.9275    1.0000 </r>
       <r>    7.4020    0.0000 </r>
       <r>    8.4130    0.0000 </r>
       <r>    8.5376    0.0000 </r>
       <r>    8.5376    0.0000 </r>
       <r>    9.2897    0.0000 </r>
       <r>    9.3165    0.0000 </r>
       <r>    9.3165    0.0000 </r>
       <r>    9.5154    0.0000 </r>
       <r>   10.1998    0.0000 </r>
      </set>
      <set comment="kpoint 35">
       <r>   -4.7671    1.0000 </r>
       <r>   -4.4145    1.0000 </r>
       <r>   -3.7759    1.0000 </r>
       <r>   -3.5119    1.0000 </r>
       <r>   -0.6946    1.0000 </r>
       <r>   -0.3912    1.0000 </r>
       <r>    0.3848    1.0000 </r>
       <r>    0.8476    1.0000 </r>
       <r>    1.6976    1.0000 </r>
       <r>    1.9417    1.0000 </r>
       <r>    2.5370    1.0000 </r>
       <r>    2.8837    1.0000 </r>
       <r>    3.7472    1.0000 </r>
       <r>    3.8020    1.0000 </r>
       <r>    4.1581    1.0000 </r>
       <r>    4.6299    1.0000 </r>
       <r>    7.7935    0.0000 </r>
       <r>    8.4653    0.0000 </r>
       <r>    8.5174    0.0000 </r>
       <r>    8.6996    0.0000 </r>
       <r>    8.9696    0.0000 </r>
       <r>    9.1200    0.0000 </r>
       <r>    9.4285    0.0000 </r>
       <r>   10.1496    0.0000 </r>
       <r>   10.3970    0.0000 </r>
      </set>
      <set comment="kpoint 36">
       <r>   -4.4863    1.0000 </r>
       <r>   -4.1532    1.0000 </r>
       <r>   -4.1532    1.0000 </r>
       <r>   -3.8483    1.0000 </r>
       <r>   -0.3689    1.0000 </r>
       <r>   -0.0068    1.0000 </r>
       <r>   -0.0068    1.0000 </r>
       <r>    0.4059    1.0000 </r>
       <r>    1.9147    1.0000 </r>
       <r>    2.2008    1.0000 </r>
       <r>    2.2008    1.0000 </r>
       <r>    2.5192    1.0000 </r>
       <r>    4.1188    1.0000 </r>
       <r>    4.2252    1.0000 </r>
       <r>    4.2252    1.0000 </r>
       <r>    4.5447    1.0000 </r>
       <r>    7.8565    0.0000 </r>
       <r>    8.2379    0.0000 </r>
       <r>    8.2379    0.0000 </r>
       <r>    8.2562    0.0000 </r>
       <r>    9.6518    0.0000 </r>
       <r>    9.6518    0.0000 </r>
       <r>    9.8433    0.0000 </r>
       <r>    9.9546    0.0000 </r>
       <r>   10.5463    0.0000 </r>
      </set>
      <set comment="kpoint 37">
       <r>   -5.7743    1.0000 </r>
       <r>   -3.2553    1.0000 </r>
       <r>   -3.2553    1.0000 </r>
       <r>   -3.2553    1.0000 </r>
       <r>   -0.8208    1.0000 </r>
       <r>   -0.8208    1.0000 </r>
       <r>   -0.8208    1.0000 </r>
       <r>    2.0357    1.0000 </r>
       <r>    2.0357    1.0000 </r>
       <r>    2.0357    1.0000 </r>
       <r>    2.9808    1.0000 </r>
       <r>    3.1763    1.0000 </r>
       <r>    3.1763    1.0000 </r>
       <r>    3.1763    1.0000 </r>
       <r>    5.1285    1.0000 </r>
       <r>    5.1285    1.0000 </r>
       <r>    6.7970    0.0000 </r>
       <r>    6.7970    0.0000 </r>
       <r>    6.7970    0.0000 </r>
       <r>    7.8585    0.0000 </r>
       <r>    8.6460    0.0000 </r>
       <r>    8.6460    0.0000 </r>
       <r>    8.6460    0.0000 </r>
       <r>    8.8981    0.0000 </r>
       <r>    8.8981    0.0000 </r>
      </set>
      <set comment="kpoint 38">
       <r>   -5.6017    1.0000 </r>
       <r>   -3.7803    1.0000 </r>
       <r>   -3.1870    1.0000 </r>
       <r>   -3.1870    1.0000 </r>
       <r>   -0.9301    1.0000 </r>
       <r>   -0.9301    1.0000 </r>
       <r>   -0.2499    1.0000 </r>
       <r>    1.8674    1.0000 </r>
       <r>    1.8674    1.0000 </r>
       <r>    2.3739    1.0000 </r>
       <r>    2.4174    1.0000 </r>
       <r>    3.2018    1.0000 </r>
       <r>    3.2018    1.0000 </r>
       <r>    3.3270    1.0000 </r>
       <r>    4.7933    1.0000 </r>
       <r>    5.0019    1.0000 </r>
       <r>    6.9851    0.0000 </r>
       <r>    7.1137    0.0000 </r>
       <r>    7.1137    0.0000 </r>
       <r>    7.9123    0.0000 </r>
       <r>    8.7809    0.0000 </r>
       <r>    8.8963    0.0000 </r>
       <r>    9.3112    0.0000 </r>
       <r>    9.4908    0.0000 </r>
       <r>    9.4908    0.0000 </r>
      </set>
      <set comment="kpoint 39">
       <r>   -5.3617    1.0000 </r>
       <r>   -4.2608    1.0000 </r>
       <r>   -3.1174    1.0000 </r>
       <r>   -3.1174    1.0000 </r>
       <r>   -1.0433    1.0000 </r>
       <r>   -1.0433    1.0000 </r>
       <r>    0.2947    1.0000 </r>
       <r>    1.7893    1.0000 </r>
       <r>    1.7893    1.0000 </r>
       <r>    1.8682    1.0000 </r>
       <r>    2.8340    1.0000 </r>
       <r>    3.1229    1.0000 </r>
       <r>    3.1229    1.0000 </r>
       <r>    3.5344    1.0000 </r>
       <r>    4.4392    1.0000 </r>
       <r>    4.5592    1.0000 </r>
       <r>    7.2328    0.0000 </r>
       <r>    7.7266    0.0000 </r>
       <r>    7.7266    0.0000 </r>
       <r>    8.0130    0.0000 </r>
       <r>    8.8798    0.0000 </r>
       <r>    9.2495    0.0000 </r>
       <r>    9.7850    0.0000 </r>
       <r>   10.2937    0.0000 </r>
       <r>   10.2937    0.0000 </r>
      </set>
      <set comment="kpoint 40">
       <r>   -5.0562    1.0000 </r>
       <r>   -4.6880    1.0000 </r>
       <r>   -3.0723    1.0000 </r>
       <r>   -3.0723    1.0000 </r>
       <r>   -1.1168    1.0000 </r>
       <r>   -1.1168    1.0000 </r>
       <r>    0.8185    1.0000 </r>
       <r>    1.3378    1.0000 </r>
       <r>    1.7674    1.0000 </r>
       <r>    1.7674    1.0000 </r>
       <r>    3.0473    1.0000 </r>
       <r>    3.0473    1.0000 </r>
       <r>    3.3858    1.0000 </r>
       <r>    3.7942    1.0000 </r>
       <r>    3.9826    1.0000 </r>
       <r>    4.0994    1.0000 </r>
       <r>    7.5214    0.0000 </r>
       <r>    7.8144    0.0000 </r>
       <r>    8.5389    0.0000 </r>
       <r>    8.5389    0.0000 </r>
       <r>    9.4123    0.0000 </r>
       <r>    9.4855    0.0000 </r>
       <r>    9.4855    0.0000 </r>
       <r>    9.6723    0.0000 </r>
       <r>   10.2645    0.0000 </r>
      </set>
      <set comment="kpoint 41">
       <r>   -5.4323    1.0000 </r>
       <r>   -3.6737    1.0000 </r>
       <r>   -3.6737    1.0000 </r>
       <r>   -3.1792    1.0000 </r>
       <r>   -1.0360    1.0000 </r>
       <r>   -0.4800    1.0000 </r>
       <r>   -0.4800    1.0000 </r>
       <r>    1.8104    1.0000 </r>
       <r>    1.8736    1.0000 </r>
       <r>    2.2640    1.0000 </r>
       <r>    2.2640    1.0000 </r>
       <r>    3.3757    1.0000 </r>
       <r>    3.3757    1.0000 </r>
       <r>    3.4374    1.0000 </r>
       <r>    4.5460    1.0000 </r>
       <r>    5.0481    1.0000 </r>
       <r>    7.1177    0.0000 </r>
       <r>    7.3046    0.0000 </r>
       <r>    7.3046    0.0000 </r>
       <r>    7.7999    0.0000 </r>
       <r>    8.9788    0.0000 </r>
       <r>    9.2652    0.0000 </r>
       <r>    9.7152    0.0000 </r>
       <r>    9.7152    0.0000 </r>
       <r>   10.3622    0.0000 </r>
      </set>
      <set comment="kpoint 42">
       <r>   -5.1973    1.0000 </r>
       <r>   -4.1304    1.0000 </r>
       <r>   -3.5407    1.0000 </r>
       <r>   -3.2047    1.0000 </r>
       <r>   -1.0967    1.0000 </r>
       <r>   -0.7248    1.0000 </r>
       <r>   -0.0414    1.0000 </r>
       <r>    1.3514    1.0000 </r>
       <r>    1.8488    1.0000 </r>
       <r>    2.1754    1.0000 </r>
       <r>    2.7557    1.0000 </r>
       <r>    3.3696    1.0000 </r>
       <r>    3.5053    1.0000 </r>
       <r>    3.6278    1.0000 </r>
       <r>    4.1684    1.0000 </r>
       <r>    4.8210    1.0000 </r>
       <r>    7.4696    0.0000 </r>
       <r>    7.5540    0.0000 </r>
       <r>    7.9022    0.0000 </r>
       <r>    7.9694    0.0000 </r>
       <r>    8.9118    0.0000 </r>
       <r>    9.5684    0.0000 </r>
       <r>    9.8776    0.0000 </r>
       <r>   10.0344    0.0000 </r>
       <r>   10.2405    0.0000 </r>
      </set>
      <set comment="kpoint 43">
       <r>   -4.8993    1.0000 </r>
       <r>   -4.5418    1.0000 </r>
       <r>   -3.4008    1.0000 </r>
       <r>   -3.2806    1.0000 </r>
       <r>   -1.0660    1.0000 </r>
       <r>   -0.9340    1.0000 </r>
       <r>    0.4000    1.0000 </r>
       <r>    0.8609    1.0000 </r>
       <r>    1.9493    1.0000 </r>
       <r>    2.0702    1.0000 </r>
       <r>    3.2721    1.0000 </r>
       <r>    3.3916    1.0000 </r>
       <r>    3.4575    1.0000 </r>
       <r>    3.7474    1.0000 </r>
       <r>    3.9708    1.0000 </r>
       <r>    4.3994    1.0000 </r>
       <r>    7.8296    0.0000 </r>
       <r>    8.0412    0.0000 </r>
       <r>    8.1116    0.0000 </r>
       <r>    8.6946    0.0000 </r>
       <r>    8.9456    0.0000 </r>
       <r>    9.0654    0.0000 </r>
       <r>    9.5920    0.0000 </r>
       <r>    9.6160    0.0000 </r>
       <r>   10.0312    0.0000 </r>
      </set>
      <set comment="kpoint 44">
       <r>   -4.9703    1.0000 </r>
       <r>   -3.9579    1.0000 </r>
       <r>   -3.9579    1.0000 </r>
       <r>   -3.3513    1.0000 </r>
       <r>   -1.0633    1.0000 </r>
       <r>   -0.3838    1.0000 </r>
       <r>   -0.3838    1.0000 </r>
       <r>    0.8574    1.0000 </r>
       <r>    1.9836    1.0000 </r>
       <r>    2.6002    1.0000 </r>
       <r>    2.6002    1.0000 </r>
       <r>    3.7277    1.0000 </r>
       <r>    3.7277    1.0000 </r>
       <r>    3.7774    1.0000 </r>
       <r>    3.8012    1.0000 </r>
       <r>    4.8551    1.0000 </r>
       <r>    7.5053    0.0000 </r>
       <r>    7.9908    0.0000 </r>
       <r>    8.1216    0.0000 </r>
       <r>    8.1216    0.0000 </r>
       <r>    9.1631    0.0000 </r>
       <r>    9.3505    0.0000 </r>
       <r>    9.3505    0.0000 </r>
       <r>    9.3572    0.0000 </r>
       <r>   10.6615    0.0000 </r>
      </set>
      <set comment="kpoint 45">
       <r>   -4.6839    1.0000 </r>
       <r>   -4.3436    1.0000 </r>
       <r>   -3.7560    1.0000 </r>
       <r>   -3.5445    1.0000 </r>
       <r>   -0.9231    1.0000 </r>
       <r>   -0.6882    1.0000 </r>
       <r>   -0.0110    1.0000 </r>
       <r>    0.4019    1.0000 </r>
       <r>    2.1737    1.0000 </r>
       <r>    2.3916    1.0000 </r>
       <r>    3.0153    1.0000 </r>
       <r>    3.4138    1.0000 </r>
       <r>    3.8271    1.0000 </r>
       <r>    3.8714    1.0000 </r>
       <r>    4.1663    1.0000 </r>
       <r>    4.5918    1.0000 </r>
       <r>    7.8730    0.0000 </r>
       <r>    8.1793    0.0000 </r>
       <r>    8.2940    0.0000 </r>
       <r>    8.4880    0.0000 </r>
       <r>    8.9317    0.0000 </r>
       <r>    8.9721    0.0000 </r>
       <r>    8.9980    0.0000 </r>
       <r>    9.7630    0.0000 </r>
       <r>    9.7858    0.0000 </r>
      </set>
      <set comment="kpoint 46">
       <r>   -4.4152    1.0000 </r>
       <r>   -4.1014    1.0000 </r>
       <r>   -4.1014    1.0000 </r>
       <r>   -3.8282    1.0000 </r>
       <r>   -0.6904    1.0000 </r>
       <r>   -0.3811    1.0000 </r>
       <r>   -0.3811    1.0000 </r>
       <r>   -0.0158    1.0000 </r>
       <r>    2.4351    1.0000 </r>
       <r>    2.7227    1.0000 </r>
       <r>    2.7227    1.0000 </r>
       <r>    3.0655    1.0000 </r>
       <r>    4.1635    1.0000 </r>
       <r>    4.2551    1.0000 </r>
       <r>    4.2551    1.0000 </r>
       <r>    4.5442    1.0000 </r>
       <r>    7.8997    0.0000 </r>
       <r>    8.1194    0.0000 </r>
       <r>    8.2042    0.0000 </r>
       <r>    8.2042    0.0000 </r>
       <r>    9.1891    0.0000 </r>
       <r>    9.1891    0.0000 </r>
       <r>    9.4370    0.0000 </r>
       <r>    9.5243    0.0000 </r>
       <r>    9.9000    0.0000 </r>
      </set>
      <set comment="kpoint 47">
       <r>   -5.2672    1.0000 </r>
       <r>   -3.6020    1.0000 </r>
       <r>   -3.6020    1.0000 </r>
       <r>   -3.6020    1.0000 </r>
       <r>   -0.7305    1.0000 </r>
[...]
       <r>   -1.0004    1.0000 </r>
       <r>   -0.0916    1.0000 </r>
       <r>    3.2445    1.0000 </r>
       <r>    3.2445    1.0000 </r>
       <r>    3.2445    1.0000 </r>
       <r>    4.0386    1.0000 </r>
       <r>    4.0386    1.0000 </r>
       <r>    4.0386    1.0000 </r>
       <r>    4.5795    1.0000 </r>
       <r>    4.5795    1.0000 </r>
       <r>    7.2523    0.0000 </r>
       <r>    7.7849    0.0000 </r>
       <r>    7.7849    0.0000 </r>
       <r>    7.7849    0.0000 </r>
       <r>    9.1019    0.0000 </r>
       <r>    9.1019    0.0000 </r>
       <r>    9.2525    0.0000 </r>
       <r>    9.2525    0.0000 </r>
       <r>    9.2525    0.0000 </r>
      </set>
      <set comment="kpoint 54">
       <r>   -4.3726    1.0000 </r>
       <r>   -4.0954    1.0000 </r>
       <r>   -3.7615    1.0000 </r>
       <r>   -3.7615    1.0000 </r>
       <r>   -1.1541    1.0000 </r>
       <r>   -1.1541    1.0000 </r>
       <r>   -0.7904    1.0000 </r>
       <r>   -0.4816    1.0000 </r>
       <r>    3.3837    1.0000 </r>
       <r>    3.3837    1.0000 </r>
       <r>    3.8880    1.0000 </r>
       <r>    4.1399    1.0000 </r>
       <r>    4.1399    1.0000 </r>
       <r>    4.2127    1.0000 </r>
       <r>    4.3989    1.0000 </r>
       <r>    4.4009    1.0000 </r>
       <r>    7.3894    0.0000 </r>
       <r>    7.7054    0.0000 </r>
       <r>    7.9118    0.0000 </r>
       <r>    7.9118    0.0000 </r>
       <r>    8.8841    0.0000 </r>
       <r>    8.8841    0.0000 </r>
       <r>    8.9041    0.0000 </r>
       <r>    8.9433    0.0000 </r>
       <r>    9.2411    0.0000 </r>
      </set>
      <set comment="kpoint 55">
       <r>   -4.1662    1.0000 </r>
       <r>   -3.9524    1.0000 </r>
       <r>   -3.9524    1.0000 </r>
       <r>   -3.8326    1.0000 </r>
       <r>   -1.1831    1.0000 </r>
       <r>   -1.0539    1.0000 </r>
       <r>   -1.0539    1.0000 </r>
       <r>   -0.8206    1.0000 </r>
       <r>    3.7137    1.0000 </r>
       <r>    3.8965    1.0000 </r>
       <r>    3.8965    1.0000 </r>
       <r>    4.2151    1.0000 </r>
       <r>    4.3120    1.0000 </r>
       <r>    4.3401    1.0000 </r>
       <r>    4.3401    1.0000 </r>
       <r>    4.5103    1.0000 </r>
       <r>    7.3409    0.0000 </r>
       <r>    7.6092    0.0000 </r>
       <r>    7.6092    0.0000 </r>
       <r>    7.6767    0.0000 </r>
       <r>    8.8897    0.0000 </r>
       <r>    8.8897    0.0000 </r>
       <r>    8.9628    0.0000 </r>
       <r>    9.0507    0.0000 </r>
       <r>    9.0552    0.0000 </r>
      </set>
      <set comment="kpoint 56">
       <r>   -4.0230    1.0000 </r>
       <r>   -3.9034    1.0000 </r>
       <r>   -3.9034    1.0000 </r>
       <r>   -3.9034    1.0000 </r>
       <r>   -1.2169    1.0000 </r>
       <r>   -1.2169    1.0000 </r>
       <r>   -1.2169    1.0000 </r>
       <r>   -1.0881    1.0000 </r>
       <r>    4.2470    1.0000 </r>
       <r>    4.2470    1.0000 </r>
       <r>    4.2470    1.0000 </r>
       <r>    4.3934    1.0000 </r>
       <r>    4.3934    1.0000 </r>
       <r>    4.3934    1.0000 </r>
       <r>    4.4624    1.0000 </r>
       <r>    4.4624    1.0000 </r>
       <r>    7.1172    0.0000 </r>
       <r>    7.2987    0.0000 </r>
       <r>    7.2987    0.0000 </r>
       <r>    7.2987    0.0000 </r>
       <r>    8.9381    0.0000 </r>
       <r>    8.9381    0.0000 </r>
       <r>    8.9381    0.0000 </r>
       <r>    8.9996    0.0000 </r>
       <r>    8.9996    0.0000 </r>
      </set>
     </set>
    </set>
   </array>
  </eigenvalues>
  <separator name="orbital magnetization" >
   <v name="MAGDIPOLOUT">      0.00000000      0.00000000      0.00000000</v>
  </separator>
  <dos>
   <i name="efermi">      5.93122981 </i>
   <total>
    <array>
     <dimension dim="1">gridpoints</dimension>
     <dimension dim="2">spin</dimension>
     <field>energy</field>
     <field>total</field>
     <field>integrated</field>
     <set>
      <set comment="spin 1">
       <r>    -7.1958     0.0000     0.0000 </r>
       <r>    -7.1322     0.0000     0.0000 </r>
       <r>    -7.0686     0.0000     0.0000 </r>
       <r>    -7.0051     0.0000     0.0000 </r>
       <r>    -6.9415     0.0000     0.0000 </r>
       <r>    -6.8779     0.0000     0.0000 </r>
       <r>    -6.8144     0.0000     0.0000 </r>
       <r>    -6.7508     0.0000     0.0000 </r>
       <r>    -6.6872     0.0000     0.0000 </r>
       <r>    -6.6236     0.0000     0.0000 </r>
       <r>    -6.5601     0.0000     0.0000 </r>
       <r>    -6.4965     0.0000     0.0000 </r>
       <r>    -6.4329     0.0000     0.0000 </r>
       <r>    -6.3693     0.0005     0.0000 </r>
       <r>    -6.3058     0.0055     0.0004 </r>
       <r>    -6.2422     0.0353     0.0026 </r>
       <r>    -6.1786     0.1261     0.0106 </r>
       <r>    -6.1151     0.2784     0.0283 </r>
       <r>    -6.0515     0.4480     0.0568 </r>
       <r>    -5.9879     0.5848     0.0940 </r>
       <r>    -5.9243     0.6718     0.1367 </r>
       <r>    -5.8608     0.7857     0.1867 </r>
       <r>    -5.7972     0.8936     0.2435 </r>
       <r>    -5.7336     0.9424     0.3034 </r>
       <r>    -5.6700     0.9677     0.3649 </r>
       <r>    -5.6065     1.0566     0.4321 </r>
       <r>    -5.5429     1.2276     0.5101 </r>
       <r>    -5.4793     1.2898     0.5921 </r>
       <r>    -5.4157     1.1992     0.6683 </r>
       <r>    -5.3522     1.1892     0.7440 </r>
       <r>    -5.2886     1.4226     0.8344 </r>
       <r>    -5.2250     1.6086     0.9367 </r>
       <r>    -5.1615     1.5759     1.0368 </r>
       <r>    -5.0979     1.4844     1.1312 </r>
       <r>    -5.0343     1.5511     1.2298 </r>
       <r>    -4.9707     1.6565     1.3351 </r>
       <r>    -4.9072     1.6693     1.4412 </r>
       <r>    -4.8436     1.7984     1.5556 </r>
       <r>    -4.7800     2.0547     1.6862 </r>
       <r>    -4.7164     2.1015     1.8198 </r>
       <r>    -4.6529     1.9141     1.9415 </r>
       <r>    -4.5893     1.7852     2.0550 </r>
       <r>    -4.5257     1.8556     2.1729 </r>
       <r>    -4.4622     2.1645     2.3105 </r>
       <r>    -4.3986     2.5640     2.4735 </r>
       <r>    -4.3350     2.6079     2.6393 </r>
       <r>    -4.2714     2.3348     2.7878 </r>
       <r>    -4.2079     2.3607     2.9378 </r>
       <r>    -4.1443     2.6148     3.1041 </r>
       <r>    -4.0807     2.6710     3.2739 </r>
       <r>    -4.0171     2.7484     3.4486 </r>
       <r>    -3.9536     3.0063     3.6397 </r>
       <r>    -3.8900     3.3154     3.8505 </r>
       <r>    -3.8264     3.7746     4.0905 </r>
       <r>    -3.7628     4.0642     4.3488 </r>
       <r>    -3.6993     3.5538     4.5748 </r>
       <r>    -3.6357     2.8144     4.7537 </r>
       <r>    -3.5721     2.9762     4.9429 </r>
       <r>    -3.5086     3.3754     5.1575 </r>
       <r>    -3.4450     2.9921     5.3477 </r>
       <r>    -3.3814     2.6394     5.5155 </r>
       <r>    -3.3178     2.7853     5.6926 </r>
       <r>    -3.2543     3.0410     5.8859 </r>
       <r>    -3.1907     3.3433     6.0984 </r>
       <r>    -3.1271     3.2621     6.3058 </r>
       <r>    -3.0635     2.6158     6.4721 </r>
       <r>    -3.0000     1.8861     6.5920 </r>
       <r>    -2.9364     1.5409     6.6900 </r>
       <r>    -2.8728     1.5468     6.7883 </r>
       <r>    -2.8092     1.8878     6.9083 </r>
       <r>    -2.7457     2.5687     7.0716 </r>
       <r>    -2.6821     2.9253     7.2576 </r>
       <r>    -2.6185     2.5758     7.4213 </r>
       <r>    -2.5550     1.9805     7.5472 </r>
       <r>    -2.4914     1.3598     7.6337 </r>
       <r>    -2.4278     0.8849     7.6899 </r>
       <r>    -2.3642     0.7045     7.7347 </r>
       <r>    -2.3007     0.7043     7.7795 </r>
       <r>    -2.2371     0.7801     7.8291 </r>
       <r>    -2.1735     0.8519     7.8833 </r>
       <r>    -2.1099     0.9343     7.9427 </r>
       <r>    -2.0464     1.0447     8.0091 </r>
       <r>    -1.9828     1.0525     8.0760 </r>
       <r>    -1.9192     0.8434     8.1296 </r>
       <r>    -1.8557     0.5833     8.1667 </r>
       <r>    -1.7921     0.4641     8.1962 </r>
       <r>    -1.7285     0.4513     8.2249 </r>
       <r>    -1.6649     0.5080     8.2572 </r>
       <r>    -1.6014     0.5912     8.2948 </r>
       <r>    -1.5378     0.8967     8.3518 </r>
       <r>    -1.4742     2.0032     8.4791 </r>
       <r>    -1.4106     3.4651     8.6994 </r>
       <r>    -1.3471     3.5789     8.9269 </r>
       <r>    -1.2835     2.6230     9.0937 </r>
       <r>    -1.2199     2.4041     9.2465 </r>
       <r>    -1.1563     3.3651     9.4604 </r>
       <r>    -1.0928     4.7565     9.7628 </r>
       <r>    -1.0292     5.4671    10.1104 </r>
       <r>    -0.9656     5.3253    10.4489 </r>
       <r>    -0.9021     4.5865    10.7405 </r>
       <r>    -0.8385     3.6442    10.9722 </r>
       <r>    -0.7749     3.7317    11.2094 </r>
       <r>    -0.7113     4.3230    11.4842 </r>
       <r>    -0.6478     3.6207    11.7144 </r>
       <r>    -0.5842     2.0961    11.8477 </r>
       <r>    -0.5206     1.6004    11.9494 </r>
       <r>    -0.4570     2.2610    12.0932 </r>
       <r>    -0.3935     2.8684    12.2755 </r>
       <r>    -0.3299     2.5519    12.4378 </r>
       <r>    -0.2663     1.7952    12.5519 </r>
       <r>    -0.2028     1.3435    12.6373 </r>
       <r>    -0.1392     1.3967    12.7261 </r>
       <r>    -0.0756     2.2561    12.8695 </r>
       <r>    -0.0120     3.0678    13.0645 </r>
       <r>     0.0515     2.5972    13.2296 </r>
       <r>     0.1151     1.4888    13.3243 </r>
       <r>     0.1787     0.8273    13.3769 </r>
       <r>     0.2423     0.7915    13.4272 </r>
       <r>     0.3058     1.2240    13.5050 </r>
       <r>     0.3694     1.9119    13.6266 </r>
       <r>     0.4330     2.1197    13.7613 </r>
       <r>     0.4966     1.4824    13.8556 </r>
       <r>     0.5601     0.9733    13.9174 </r>
       <r>     0.6237     0.8413    13.9709 </r>
       <r>     0.6873     0.7487    14.0185 </r>
       <r>     0.7508     1.0114    14.0828 </r>
       <r>     0.8144     1.7346    14.1931 </r>
       <r>     0.8780     2.0383    14.3227 </r>
       <r>     0.9416     1.4149    14.4126 </r>
       <r>     1.0051     0.6954    14.4568 </r>
       <r>     1.0687     0.4391    14.4848 </r>
       <r>     1.1323     0.4755    14.5150 </r>
       <r>     1.1959     0.6226    14.5546 </r>
       <r>     1.2594     1.0034    14.6184 </r>
       <r>     1.3230     1.8087    14.7333 </r>
       <r>     1.3866     2.4743    14.8906 </r>
       <r>     1.4502     2.8377    15.0710 </r>
       <r>     1.5137     3.5119    15.2943 </r>
       <r>     1.5773     4.2027    15.5615 </r>
       <r>     1.6409     4.3058    15.8352 </r>
       <r>     1.7044     4.0982    16.0957 </r>
       <r>     1.7680     4.4169    16.3765 </r>
       <r>     1.8316     5.1610    16.7046 </r>
       <r>     1.8952     5.2622    17.0392 </r>
       <r>     1.9587     4.5398    17.3278 </r>
       <r>     2.0223     3.7590    17.5668 </r>
       <r>     2.0859     3.3421    17.7792 </r>
       <r>     2.1495     3.5999    18.0081 </r>
       <r>     2.2130     4.2945    18.2811 </r>
       <r>     2.2766     4.6307    18.5755 </r>
       <r>     2.3402     4.6082    18.8684 </r>
       <r>     2.4037     4.7189    19.1684 </r>
       <r>     2.4673     4.7565    19.4708 </r>
       <r>     2.5309     4.6398    19.7658 </r>
       <r>     2.5945     4.5124    20.0527 </r>
       <r>     2.6580     4.3359    20.3283 </r>
       <r>     2.7216     4.6516    20.6240 </r>
       <r>     2.7852     5.5038    20.9739 </r>
       <r>     2.8488     6.2050    21.3684 </r>
       <r>     2.9123     6.4506    21.7785 </r>
       <r>     2.9759     6.2484    22.1757 </r>
       <r>     3.0395     6.0982    22.5634 </r>
       <r>     3.1031     6.0524    22.9481 </r>
       <r>     3.1666     5.7508    23.3137 </r>
       <r>     3.2302     5.3262    23.6523 </r>
       <r>     3.2938     5.2979    23.9892 </r>
       <r>     3.3573     6.0227    24.3720 </r>
       <r>     3.4209     6.6586    24.7953 </r>
       <r>     3.4845     6.0683    25.1811 </r>
       <r>     3.5481     4.8747    25.4910 </r>
       <r>     3.6116     4.4680    25.7751 </r>
       <r>     3.6752     5.1109    26.1000 </r>
       <r>     3.7388     5.7482    26.4654 </r>
       <r>     3.8024     5.8348    26.8364 </r>
       <r>     3.8659     5.4054    27.1800 </r>
       <r>     3.9295     4.8775    27.4901 </r>
       <r>     3.9931     4.6619    27.7864 </r>
       <r>     4.0566     4.4543    28.0696 </r>
       <r>     4.1202     4.6568    28.3657 </r>
       <r>     4.1838     5.4316    28.7110 </r>
       <r>     4.2474     5.5718    29.0652 </r>
       <r>     4.3109     4.7290    29.3658 </r>
       <r>     4.3745     3.8599    29.6112 </r>
       <r>     4.4381     3.6119    29.8408 </r>
       <r>     4.5017     4.0029    30.0953 </r>
       <r>     4.5652     4.2953    30.3684 </r>
       <r>     4.6288     3.6044    30.5975 </r>
       <r>     4.6924     2.5769    30.7613 </r>
       <r>     4.7560     2.1306    30.8968 </r>
       <r>     4.8195     2.0863    31.0294 </r>
       <r>     4.8831     2.0308    31.1585 </r>
       <r>     4.9467     2.0836    31.2910 </r>
       <r>     5.0102     2.0425    31.4208 </r>
       <r>     5.0738     1.6019    31.5227 </r>
       <r>     5.1374     1.2765    31.6038 </r>
       <r>     5.2010     1.2233    31.6816 </r>
       <r>     5.2645     1.0805    31.7503 </r>
       <r>     5.3281     0.9558    31.8110 </r>
       <r>     5.3917     0.9434    31.8710 </r>
       <r>     5.4553     0.8307    31.9238 </r>
       <r>     5.5188     0.5784    31.9606 </r>
       <r>     5.5824     0.3350    31.9819 </r>
       <r>     5.6460     0.1804    31.9934 </r>
       <r>     5.7095     0.0799    31.9984 </r>
       <r>     5.7731     0.0215    31.9998 </r>
       <r>     5.8367     0.0030    32.0000 </r>
       <r>     5.9003     0.0002    32.0000 </r>
       <r>     5.9638     0.0000    32.0000 </r>
       <r>     6.0274     0.0002    32.0000 </r>
       <r>     6.0910     0.0033    32.0002 </r>
       <r>     6.1546     0.0230    32.0017 </r>
       <r>     6.2181     0.0808    32.0068 </r>
       <r>     6.2817     0.1606    32.0170 </r>
       <r>     6.3453     0.2768    32.0346 </r>
       <r>     6.4089     0.6013    32.0728 </r>
       <r>     6.4724     1.0748    32.1412 </r>
       <r>     6.5360     1.2686    32.2218 </r>
       <r>     6.5996     1.2415    32.3007 </r>
       <r>     6.6631     1.3720    32.3880 </r>
       <r>     6.7267     1.6040    32.4899 </r>
       <r>     6.7903     1.7072    32.5985 </r>
       <r>     6.8539     1.6125    32.7010 </r>
       <r>     6.9174     1.7362    32.8114 </r>
       <r>     6.9810     2.4203    32.9652 </r>
       <r>     7.0446     2.9084    33.1501 </r>
       <r>     7.1082     2.7920    33.3276 </r>
       <r>     7.1717     2.4947    33.4862 </r>
       <r>     7.2353     2.5406    33.6477 </r>
       <r>     7.2989     3.2652    33.8553 </r>
       <r>     7.3625     3.8867    34.1024 </r>
       <r>     7.4260     3.7950    34.3437 </r>
       <r>     7.4896     3.5610    34.5700 </r>
       <r>     7.5532     3.7886    34.8109 </r>
       <r>     7.6167     4.2814    35.0831 </r>
       <r>     7.6803     4.8312    35.3902 </r>
       <r>     7.7439     5.6495    35.7494 </r>
       <r>     7.8075     6.3531    36.1532 </r>
       <r>     7.8710     6.6398    36.5754 </r>
       <r>     7.9346     6.9098    37.0146 </r>
       <r>     7.9982     6.8308    37.4489 </r>
       <r>     8.0618     5.8966    37.8238 </r>
       <r>     8.1253     5.1786    38.1530 </r>
       <r>     8.1889     5.4926    38.5022 </r>
       <r>     8.2525     5.8190    38.8721 </r>
       <r>     8.3160     5.1067    39.1967 </r>
       <r>     8.3796     4.2178    39.4649 </r>
       <r>     8.4432     4.2852    39.7373 </r>
       <r>     8.5068     4.7269    40.0378 </r>
       <r>     8.5703     4.8889    40.3486 </r>
       <r>     8.6339     4.9163    40.6612 </r>
       <r>     8.6975     4.8126    40.9671 </r>
       <r>     8.7611     4.5120    41.2539 </r>
       <r>     8.8246     5.0967    41.5780 </r>
       <r>     8.8882     7.2343    42.0379 </r>
       <r>     8.9518     9.0480    42.6131 </r>
       <r>     9.0154     8.6463    43.1628 </r>
       <r>     9.0789     7.0878    43.6133 </r>
       <r>     9.1425     6.1142    44.0020 </r>
       <r>     9.2061     5.9923    44.3830 </r>
       <r>     9.2696     6.4165    44.7909 </r>
       <r>     9.3332     6.9027    45.2297 </r>
       <r>     9.3968     6.9802    45.6735 </r>
       <r>     9.4604     6.4974    46.0865 </r>
       <r>     9.5239     5.6408    46.4452 </r>
       <r>     9.5875     5.0875    46.7686 </r>
       <r>     9.6511     4.9729    47.0847 </r>
       <r>     9.7147     4.6599    47.3810 </r>
       <r>     9.7782     4.0976    47.6415 </r>
       <r>     9.8418     3.5680    47.8683 </r>
       <r>     9.9054     3.4840    48.0898 </r>
       <r>     9.9689     3.7996    48.3313 </r>
       <r>    10.0325     3.9817    48.5845 </r>
       <r>    10.0961     3.7458    48.8226 </r>
       <r>    10.1597     3.4304    49.0407 </r>
       <r>    10.2232     3.5677    49.2675 </r>
       <r>    10.2868     3.5799    49.4951 </r>
       <r>    10.3504     2.7094    49.6673 </r>
       <r>    10.4140     1.6979    49.7753 </r>
       <r>    10.4775     1.1013    49.8453 </r>
       <r>    10.5411     0.7747    49.8945 </r>
       <r>    10.6047     0.5582    49.9300 </r>
       <r>    10.6683     0.3807    49.9542 </r>
       <r>    10.7318     0.2553    49.9704 </r>
       <r>    10.7954     0.1829    49.9821 </r>
       <r>    10.8590     0.1440    49.9912 </r>
       <r>    10.9225     0.0915    49.9970 </r>
       <r>    10.9861     0.0370    49.9994 </r>
       <r>    11.0497     0.0084    49.9999 </r>
       <r>    11.1133     0.0010    50.0000 </r>
       <r>    11.1768     0.0001    50.0000 </r>
       <r>    11.2404     0.0000    50.0000 </r>
       <r>    11.3040     0.0000    50.0000 </r>
       <r>    11.3676     0.0000    50.0000 </r>
       <r>    11.4311     0.0000    50.0000 </r>
       <r>    11.4947     0.0000    50.0000 </r>
       <r>    11.5583     0.0000    50.0000 </r>
       <r>    11.6219     0.0000    50.0000 </r>
       <r>    11.6854     0.0000    50.0000 </r>
       <r>    11.7490     0.0000    50.0000 </r>
       <r>    11.8126     0.0000    50.0000 </r>
       <r>    11.8761     0.0000    50.0000 </r>
      </set>
     </set>
    </array>
   </total>
  </dos>
 </calculation>
 <structure name="finalpos" >
  <crystal>
   <varray name="basis" >
    <v>       5.46689736       0.00000000       0.00000000 </v>
    <v>      -0.00000000       5.46689736       0.00000000 </v>
    <v>      -0.00000000      -0.00000000       5.46689736 </v>
   </varray>
   <i name="volume">    163.38897974 </i>
   <varray name="rec_basis" >
    <v>       0.18291911       0.00000000       0.00000000 </v>
    <v>      -0.00000000       0.18291911       0.00000000 </v>
    <v>       0.00000000      -0.00000000       0.18291911 </v>
   </varray>
  </crystal>
  <varray name="positions" >
   <v>      -0.00000000      -0.00000000      -0.00000000 </v>
   <v>      -0.00000000       0.50000000       0.50000000 </v>
   <v>       0.50000000      -0.00000000       0.50000000 </v>
   <v>       0.50000000       0.50000000      -0.00000000 </v>
   <v>       0.25000000       0.25000000       0.25000000 </v>
   <v>       0.75000000       0.75000000       0.25000000 </v>
   <v>       0.75000000       0.25000000       0.75000000 </v>
   <v>       0.25000000       0.75000000       0.75000000 </v>
  </varray>
 </structure>
</modeling>
