diamond Si                              
   5.43100000000000     
     1.025848   -0.000000    0.000000
     0.000000    1.025848   -0.000000
     0.000000   -0.000000    1.025848
   Si
     8
Direct
  0.000000  0.000000  0.000000
  0.000000  0.500000  0.500000
  0.500000  0.000000  0.500000
  0.500000  0.500000  0.000000
  0.250000  0.250000  0.250000
  0.750000  0.750000  0.250000
  0.750000  0.250000  0.750000
  0.250000  0.750000  0.750000
 
   56   56   56
 -30.831     -26.252     -13.550      4.4834      24.120      41.710      54.550      61.368      62.356      58.838    
  52.719      45.824      39.017      32.665      26.991      22.092      17.979      14.601      11.874      9.7016    
  7.9861      6.6413      5.5949      4.7892      4.1804      3.7362      3.4337      3.2579      3.2002      3.2579    
  3.4337      3.7362      4.1804      4.7892      5.5949      6.6413      7.9861      9.7016      11.874      14.601    
  17.979      22.092      26.991      32.665      39.017      45.824      52.719      58.838      62.356      61.368    
  54.550      41.710      24.120      4.4834     -13.550     -26.252     -26.252     -21.832     -9.5781      7.7941    
  26.662      43.484      55.648      61.942      62.579      58.871      52.690      45.800      39.009      32.678    
  27.023      22.140      18.038      14.666      11.943      9.7702      8.0538      6.7073      5.6589      4.8514    
  4.2410      3.7955      3.4921      3.3157      3.2579      3.3157      3.4921      3.7955      4.2410      4.8514    
  5.6589      6.7073      8.0538      9.7702      11.943      14.666      18.038      22.140      27.023      32.678    
  39.009      45.800      52.690      58.871      62.579      61.942      55.648      43.484      26.662      7.7941    
 -9.5781     -21.832     -13.550     -9.5781      1.4105      16.919      33.623      48.293      58.573      63.416    
  63.095      58.887      52.564      45.703      38.971      32.708      27.114      22.280      18.211      14.861    
  12.147      9.9771      8.2585      6.9074      5.8535      5.0406      4.4255      3.9763      3.6701      3.4921    
  3.4337      3.4921      3.6701      3.9763      4.4255      5.0406      5.8535      6.9074      8.2585      9.9771    
  12.147      14.861      18.211      22.280      27.114      32.708      38.971      45.703      52.564      58.887    
  63.095      63.416      58.573      48.293      33.623      16.919      1.4105     -9.5781      4.4834      7.7941    
  16.919      29.688      43.227      54.770      62.344      65.142      63.515      58.679      52.244      45.469    
  38.862      32.726      27.245      22.499      18.493      15.181      12.488      10.325      8.6053      7.2481    
  6.1861      5.3649      4.7423      4.2869      3.9763      3.7955      3.7362      3.7955      3.9763      4.2869    
  4.7423      5.3649      6.1861      7.2481      8.6053      10.325      12.488      15.181      18.493      22.499    
  27.245      32.726      38.862      45.469      52.244      58.679      63.515      65.142      62.344      54.770    
  43.227      29.688      16.919      7.7941      24.120      26.662      33.623      43.227      53.137      61.138    
  65.706      66.304      63.364      58.009      51.611      45.019      38.625      32.695      27.390      22.781    
  18.873      15.625      12.967      10.821      9.1033      7.7409      6.6698      5.8383      5.2060      4.7423    
  4.4255      4.2410      4.1804      4.2410      4.4255      4.7423      5.2060      5.8383      6.6698      7.7409    
  9.1033      10.821      12.967      15.625      18.873      22.781      27.390      32.695      38.625      45.019    
  51.611      58.009      63.364      66.304      65.706      61.138      53.137      43.227      33.623      26.662    
  41.710      43.484      48.293      54.770      61.138      65.749      67.532      66.213      62.278      56.724    
  50.560      44.279      38.208      32.575      27.520      23.106      19.340      16.186      13.587      11.471    
  9.7650      8.4021      7.3237      6.4817      5.8383      5.3649      5.0406      4.8514      4.7892      4.8514    
  5.0406      5.3649      5.8383      6.4817      7.3237      8.4021      9.7650      11.471      13.587      16.186    
  19.340      23.106      27.520      32.575      38.208      44.279      50.560      56.724      62.278      66.213    
  67.532      65.749      61.138      54.770      48.293      43.484      54.550      55.648      58.573      62.344    
  65.706      67.532      67.157      64.525      60.135      54.790      49.034      43.205      37.574      32.335    
  27.609      23.454      19.880      16.862      14.351      12.287      10.608      9.2543      8.1738      7.3237    
  6.6698      6.1861      5.8535      5.6589      5.5949      5.6589      5.8535      6.1861      6.6698      7.3237    
  8.1738      9.2543      10.608      12.287      14.351      16.862      19.880      23.454      27.609      32.335    
  37.574      43.205      49.034      54.790      60.135      64.525      67.157      67.532      65.706      62.344    
  58.573      55.648      61.368      61.942      63.416      65.142      66.304      66.213      64.525      61.333    
  57.089      52.225      47.035      41.789      36.710      31.959      27.641      23.812      20.487      17.651    
  15.267      13.286      11.656      10.327      9.2543      8.4021      7.7409      7.2481      6.9074      6.7073    
  6.6413      6.7073      6.9074      7.2481      7.7409      8.4021      9.2543      10.327      11.656      13.286    
  15.267      17.651      20.487      23.812      27.641      31.959      36.710      41.789      47.035      52.225    
  57.089      61.333      64.525      66.213      66.304      65.142      63.416      61.942      62.356      62.579    
  63.095      63.515      63.364      62.278      60.135      57.089      53.351      49.121      44.621      40.064    
  35.627      31.445      27.609      24.174      21.159      18.559      16.347      14.487      12.937      11.656    
  10.608      9.7650      9.1033      8.6053      8.2585      8.0538      7.9861      8.0538      8.2585      8.6053    
  9.1033      9.7650      10.608      11.656      12.937      14.487      16.347      18.559      21.159      24.174    
  27.609      31.445      35.627      40.064      44.621      49.121      53.351      57.089      60.135      62.278    
  63.364      63.515      63.095      62.579      58.838      58.871      58.887      58.679      58.009      56.724    
  54.790      52.225      49.121      45.621      41.891      38.091      34.360      30.810      27.520      24.542    
  21.900      19.595      17.610      15.918      14.487      13.286      12.287      11.471      10.821      10.325    
  9.9771      9.7702      9.7016      9.7702      9.9771      10.325      10.821      11.471      12.287      13.286    
  14.487      15.918      17.610      19.595      21.900      24.542      27.520      30.810      34.360      38.091    
  41.891      45.621      49.121      52.225      54.790      56.724      58.009      58.679      58.887      58.871    
  52.719      52.690      52.564      52.244      51.611      50.560      49.034      47.035      44.621      41.891    
  38.961      35.947      32.958      30.082      27.390      24.928      22.722      20.775      19.078      17.610    
  16.347      15.267      14.351      13.587      12.967      12.488      12.147      11.943      11.874      11.943    
  12.147      12.488      12.967      13.587      14.351      15.267      16.347      17.610      19.078      20.775    
  22.722      24.928      27.390      30.082      32.958      35.947      38.961      41.891      44.621      47.035    
  49.034      50.560      51.611      52.244      52.564      52.690      45.824      45.800      45.703      45.469    
  45.019      44.279      43.205      41.789      40.064      38.091      35.947      33.715      31.476      29.300    
  27.245      25.352      23.641      22.119      20.775      19.595      18.559      17.651      16.862      16.186    
  15.625      15.181      14.861      14.666      14.601      14.666      14.861      15.181      15.625      16.186    
  16.862      17.651      18.559      19.595      20.775      22.119      23.641      25.352      27.245      29.300    
  31.476      33.715      35.947      38.091      40.064      41.789      43.205      44.279      45.019      45.469    
  45.703      45.800      39.017      39.009      38.971      38.862      38.625      38.208      37.574      36.710    
  35.627      34.360      32.958      31.476      29.973      28.505      27.114      25.832      24.675      23.641    
  22.722      21.900      21.159      20.487      19.880      19.340      18.873      18.493      18.211      18.038    
  17.979      18.038      18.211      18.493      18.873      19.340      19.880      20.487      21.159      21.900    
  22.722      23.641      24.675      25.832      27.114      28.505      29.973      31.476      32.958      34.360    
  35.627      36.710      37.574      38.208      38.625      38.862      38.971      39.009      32.665      32.678    
  32.708      32.726      32.695      32.575      32.335      31.959      31.445      30.810      30.082      29.300    
  28.505      27.735      27.023      26.387      25.832      25.352      24.928      24.542      24.174      23.812    
  23.454      23.106      22.781      22.499      22.280      22.140      22.092      22.140      22.280      22.499    
  22.781      23.106      23.454      23.812      24.174      24.542      24.928      25.352      25.832      26.387    
  27.023      27.735      28.505      29.300      30.082      30.810      31.445      31.959      32.335      32.575    
  32.695      32.726      32.708      32.678      26.991      27.023      27.114      27.245      27.390      27.520    
  27.609      27.641      27.609      27.520      27.390      27.245      27.114      27.023      26.991      27.023    
  27.114      27.245      27.390      27.520      27.609      27.641      27.609      27.520      27.390      27.245    
  27.114      27.023      26.991      27.023      27.114      27.245      27.390      27.520      27.609      27.641    
  27.609      27.520      27.390      27.245      27.114      27.023      26.991      27.023      27.114      27.245    
  27.390      27.520      27.609      27.641      27.609      27.520      27.390      27.245      27.114      27.023    
  22.092      22.140      22.280      22.499      22.781      23.106      23.454      23.812      24.174      24.542    
  24.928      25.352      25.832      26.387      27.023      27.735      28.505      29.300      30.082      30.810    
  31.445      31.959      32.335      32.575      32.695      32.726      32.708      32.678      32.665      32.678    
  32.708      32.726      32.695      32.575      32.335      31.959      31.445      30.810      30.082      29.300    
  28.505      27.735      27.023      26.387      25.832      25.352      24.928      24.542      24.174      23.812    
  23.454      23.106      22.781      22.499      22.280      22.140      17.979      18.038      18.211      18.493    
  18.873      19.340      19.880      20.487      21.159      21.900      22.722      23.641      24.675      25.832    
  27.114      28.505      29.973      31.476      32.958      34.360      35.627      36.710      37.574      38.208    
  38.625      38.862      38.971      39.009      39.017      39.009      38.971      38.862      38.625      38.208    
  37.574      36.710      35.627      34.360      32.958      31.476      29.973      28.505      27.114      25.832    
  24.675      23.641      22.722      21.900      21.159      20.487      19.880      19.340      18.873      18.493    
  18.211      18.038      14.601      14.666      14.861      15.181      15.625      16.186      16.862      17.651    
  18.559      19.595      20.775      22.119      23.641      25.352      27.245      29.300      31.476      33.715    
  35.947      38.091      40.064      41.789      43.205      44.279      45.019      45.469      45.703      45.800    
  45.824      45.800      45.703      45.469      45.019      44.279      43.205      41.789      40.064      38.091    
  35.947      33.715      31.476      29.300      27.245      25.352      23.641      22.119      20.775      19.595    
  18.559      17.651      16.862      16.186      15.625      15.181      14.861      14.666      11.874      11.943    
  12.147      12.488      12.967      13.587      14.351      15.267      16.347      17.610      19.078      20.775    
  22.722      24.928      27.390      30.082      32.958      35.947      38.961      41.891      44.621      47.035    
  49.034      50.560      51.611      52.244      52.564      52.690      52.719      52.690      52.564      52.244    
  51.611      50.560      49.034      47.035      44.621      41.891      38.961      35.947      32.958      30.082    
  27.390      24.928      22.722      20.775      19.078      17.610      16.347      15.267      14.351      13.587    
  12.967      12.488      12.147      11.943      9.7016      9.7702      9.9771      10.325      10.821      11.471    
  12.287      13.286      14.487      15.918      17.610      19.595      21.900      24.542      27.520      30.810    
  34.360      38.091      41.891      45.621      49.121      52.225      54.790      56.724      58.009      58.679    
  58.887      58.871      58.838      58.871      58.887      58.679      58.009      56.724      54.790      52.225    
  49.121      45.621      41.891      38.091      34.360      30.810      27.520      24.542      21.900      19.595    
  17.610      15.918      14.487      13.286      12.287      11.471      10.821      10.325      9.9771      9.7702    
  7.9861      8.0538      8.2585      8.6053      9.1033      9.7650      10.608      11.656      12.937      14.487    
  16.347      18.559      21.159      24.174      27.609      31.445      35.627      40.064      44.621      49.121    
  53.351      57.089      60.135      62.278      63.364      63.515      63.095      62.579      62.356      62.579    
  63.095      63.515      63.364      62.278      60.135      57.089      53.351      49.121      44.621      40.064    
  35.627      31.445      27.609      24.174      21.159      18.559      16.347      14.487      12.937      11.656    
  10.608      9.7650      9.1033      8.6053      8.2585      8.0538      6.6413      6.7073      6.9074      7.2481    
  7.7409      8.4021      9.2543      10.327      11.656      13.286      15.267      17.651      20.487      23.812    
  27.641      31.959      36.710      41.789      47.035      52.225      57.089      61.333      64.525      66.213    
  66.304      65.142      63.416      61.942      61.368      61.942      63.416      65.142      66.304      66.213    
  64.525      61.333      57.089      52.225      47.035      41.789      36.710      31.959      27.641      23.812    
  20.487      17.651      15.267      13.286      11.656      10.327      9.2543      8.4021      7.7409      7.2481    
  6.9074      6.7073      5.5949      5.6589      5.8535      6.1861      6.6698      7.3237      8.1738      9.2543    
  10.608      12.287      14.351      16.862      19.880      23.454      27.609      32.335      37.574      43.205    
  49.034      54.790      60.135      64.525      67.157      67.532      65.706      62.344      58.573      55.648    
  54.550      55.648      58.573      62.344      65.706      67.532      67.157      64.525      60.135      54.790    
  49.034      43.205      37.574      32.335      27.609      23.454      19.880      16.862      14.351      12.287    
  10.608      9.2543      8.1738      7.3237      6.6698      6.1861      5.8535      5.6589      4.7892      4.8514    
  5.0406      5.3649      5.8383      6.4817      7.3237      8.4021      9.7650      11.471      13.587      16.186    
  19.340      23.106      27.520      32.575      38.208      44.279      50.560      56.724      62.278      66.213    
  67.532      65.749      61.138      54.770      48.293      43.484      41.710      43.484      48.293      54.770    
  61.138      65.749      67.532      66.213      62.278      56.724      50.560      44.279      38.208      32.575    
  27.520      23.106      19.340      16.186      13.587      11.471      9.7650      8.4021      7.3237      6.4817    
  5.8383      5.3649      5.0406      4.8514      4.1804      4.2410      4.4255      4.7423      5.2060      5.8383    
  6.6698      7.7409      9.1033      10.821      12.967      15.625      18.873      22.781      27.390      32.695    
  38.625      45.019      51.611      58.009      63.364      66.304      65.706      61.138      53.137      43.227    
  33.623      26.662      24.120      26.662      33.623      43.227      53.137      61.138      65.706      66.304    
  63.364      58.009      51.611      45.019      38.625      32.695      27.390      22.781      18.873      15.625    
  12.967      10.821      9.1033      7.7409      6.6698      5.8383      5.2060      4.7423      4.4255      4.2410    
  3.7362      3.7955      3.9763      4.2869      4.7423      5.3649      6.1861      7.2481      8.6053      10.325    
  12.488      15.181      18.493      22.499      27.245      32.726      38.862      45.469      52.244      58.679    
  63.515      65.142      62.344      54.770      43.227      29.688      16.919      7.7941      4.4834      7.7941    
  16.919      29.688      43.227      54.770      62.344      65.142      63.515      58.679      52.244      45.469    
  38.862      32.726      27.245      22.499      18.493      15.181      12.488      10.325      8.6053      7.2481    
  6.1861      5.3649      4.7423      4.2869      3.9763      3.7955      3.4337      3.4921      3.6701      3.9763    
  4.4255      5.0406      5.8535      6.9074      8.2585      9.9771      12.147      14.861      18.211      22.280    
  27.114      32.708      38.971      45.703      52.564      58.887      63.095      63.416      58.573      48.293    
  33.623      16.919      1.4105     -9.5781     -13.550     -9.5781      1.4105      16.919      33.623      48.293    
  58.573      63.416      63.095      58.887      52.564      45.703      38.971      32.708      27.114      22.280    
  18.211      14.861      12.147      9.9771      8.2585      6.9074      5.8535      5.0406      4.4255      3.9763    
  3.6701      3.4921      3.2579      3.3157      3.4921      3.7955      4.2410      4.8514      5.6589      6.7073    
  8.0538      9.7702      11.943      14.666      18.038      22.140      27.023      32.678      39.009      45.800    
  52.690      58.871      62.579      61.942      55.648      43.484      26.662      7.7941     -9.5781     -21.832    
 -26.252     -21.832     -9.5781      7.7941      26.662      43.484      55.648      61.942      62.579      58.871    
  52.690      45.800      39.009      32.678      27.023      22.140      18.038      14.666      11.943      9.7702    
  8.0538      6.7073      5.6589      4.8514      4.2410      3.7955      3.4921      3.3157      3.2002      3.2579    
  3.4337      3.7362      4.1804      4.7892      5.5949      6.6413      7.9861      9.7016      11.874      14.601    
  17.979      22.092      26.991      32.665      39.017      45.824      52.719      58.838      62.356      61.368    
  54.550      41.710      24.120      4.4834     -13.550     -26.252     -30.831     -26.252     -13.550      4.4834    
  24.120      41.710      54.550      61.368      62.356      58.838      52.719      45.824      39.017      32.665    
  26.991      22.092      17.979      14.601      11.874      9.7016      7.9861      6.6413      5.5949      4.7892    
  4.1804      3.7362      3.4337      3.2579      3.2579      3.3157      3.4921      3.7955      4.2410      4.8514    
  5.6589      6.7073      8.0538      9.7702      11.943      14.666      18.038      22.140      27.023      32.678    
  39.009      45.800      52.690      58.871      62.579      61.942      55.648      43.484      26.662      7.7941    
 -9.5781     -21.832     -26.252     -21.832     -9.5781      7.7941      26.662      43.484      55.648      61.942    
  62.579      58.871      52.690      45.800      39.009      32.678      27.023      22.140      18.038      14.666    
  11.943      9.7702      8.0538      6.7073      5.6589      4.8514      4.2410      3.7955      3.4921      3.3157    
  3.4337      3.4921      3.6701      3.9763      4.4255      5.0406      5.8535      6.9074      8.2585      9.9771    
  12.147      14.861      18.211      22.280      27.114      32.708      38.971      45.703      52.564      58.887    
  63.095      63.416      58.573      48.293      33.623      16.919      1.4105     -9.5781     -13.550     -9.5781    
  1.4105      16.919      33.623      48.293      58.573      63.416      63.095      58.887      52.564      45.703    
  38.971      32.708      27.114      22.280      18.211      14.861      12.147      9.9771      8.2585      6.9074    
  5.8535      5.0406      4.4255      3.9763      3.6701      3.4921      3.7362      3.7955      3.9763      4.2869    
  4.7423      5.3649      6.1861      7.2481      8.6053      10.325      12.488      15.181      18.493      22.499    
  27.245      32.726      38.862      45.469      52.244      58.679      63.515      65.142      62.344      54.770    
  43.227      29.688      16.919      7.7941      4.4834      7.7941      16.919      29.688      43.227      54.770    
  62.344      65.142      63.515      58.679      52.244      45.469      38.862      32.726      27.245      22.499    
  18.493      15.181      12.488      10.325      8.6053      7.2481      6.1861      5.3649      4.7423      4.2869    
  3.9763      3.7955      4.1804      4.2410      4.4255      4.7423      5.2060      5.8383      6.6698      7.7409    
  9.1033      10.821      12.967      15.625      18.873      22.781      27.390      32.695      38.625      45.019    
  51.611      58.009      63.364      66.304      65.706      61.138      53.137      43.227      33.623      26.662    
  24.120      26.662      33.623      43.227      53.137      61.138      65.706      66.304      63.364      58.009    
  51.611      45.019      38.625      32.695      27.390      22.781      18.873      15.625      12.967      10.821    
  9.1033      7.7409      6.6698      5.8383      5.2060      4.7423      4.4255      4.2410      4.7892      4.8514    
  5.0406      5.3649      5.8383      6.4817      7.3237      8.4021      9.7650      11.471      13.587      16.186    
  19.340      23.106      27.520      32.575      38.208      44.279      50.560      56.724      62.278      66.213    
  67.532      65.749      61.138      54.770      48.293      43.484      41.710      43.484      48.293      54.770    
  61.138      65.749      67.532      66.213      62.278      56.724      50.560      44.279      38.208      32.575    
  27.520      23.106      19.340      16.186      13.587      11.471      9.7650      8.4021      7.3237      6.4817    
  5.8383      5.3649      5.0406      4.8514      5.5949      5.6589      5.8535      6.1861      6.6698      7.3237    
  8.1738      9.2543      10.608      12.287      14.351      16.862      19.880      23.454      27.609      32.335    
  37.574      43.205      49.034      54.790      60.135      64.525      67.157      67.532      65.706      62.344    
  58.573      55.648      54.550      55.648      58.573      62.344      65.706      67.532      67.157      64.525    
  60.135      54.790      49.034      43.205      37.574      32.335      27.609      23.454      19.880      16.862    
  14.351      12.287      10.608      9.2543      8.1738      7.3237      6.6698      6.1861      5.8535      5.6589    
  6.6413      6.7073      6.9074      7.2481      7.7409      8.4021      9.2543      10.327      11.656      13.286    
  15.267      17.651      20.487      23.812      27.641      31.959      36.710      41.789      47.035      52.225    
  57.089      61.333      64.525      66.213      66.304      65.142      63.416      61.942      61.368      61.942    
  63.416      65.142      66.304      66.213      64.525      61.333      57.089      52.225      47.035      41.789    
  36.710      31.959      27.641      23.812      20.487      17.651      15.267      13.286      11.656      10.327    
  9.2543      8.4021      7.7409      7.2481      6.9074      6.7073      7.9861      8.0538      8.2585      8.6053    
  9.1033      9.7650      10.608      11.656      12.937      14.487      16.347      18.559      21.159      24.174    
  27.609      31.445      35.627      40.064      44.621      49.121      53.351      57.089      60.135      62.278    
  63.364      63.515      63.095      62.579      62.356      62.579      63.095      63.515      63.364      62.278    
  60.135      57.089      53.351      49.121      44.621      40.064      35.627      31.445      27.609      24.174    
  21.159      18.559      16.347      14.487      12.937      11.656      10.608      9.7650      9.1033      8.6053    
  8.2585      8.0538      9.7016      9.7702      9.9771      10.325      10.821      11.471      12.287      13.286    
  14.487      15.918      17.610      19.595      21.900      24.542      27.520      30.810      34.360      38.091    
  41.891      45.621      49.121      52.225      54.790      56.724      58.009      58.679      58.887      58.871    
  58.838      58.871      58.887      58.679      58.009      56.724      54.790      52.225      49.121      45.621    
  41.891      38.091      34.360      30.810      27.520      24.542      21.900      19.595      17.610      15.918    
  14.487      13.286      12.287      11.471      10.821      10.325      9.9771      9.7702      11.874      11.943    
  12.147      12.488      12.967      13.587      14.351      15.267      16.347      17.610      19.078      20.775    
  22.722      24.928      27.390      30.082      32.958      35.947      38.961      41.891      44.621      47.035    
  49.034      50.560      51.611      52.244      52.564      52.690      52.719      52.690      52.564      52.244    
  51.611      50.560      49.034      47.035      44.621      41.891      38.961      35.947      32.958      30.082    
  27.390      24.928      22.722      20.775      19.078      17.610      16.347      15.267      14.351      13.587    
  12.967      12.488      12.147      11.943      14.601      14.666      14.861      15.181      15.625      16.186    
  16.862      17.651      18.559      19.595      20.775      22.119      23.641      25.352      27.245      29.300    
  31.476      33.715      35.947      38.091      40.064      41.789      43.205      44.279      45.019      45.469    
  45.703      45.800      45.824      45.800      45.703      45.469      45.019      44.279      43.205      41.789    
  40.064      38.091      35.947      33.715      31.476      29.300      27.245      25.352      23.641      22.119    
  20.775      19.595      18.559      17.651      16.862      16.186      15.625      15.181      14.861      14.666    
  17.979      18.038      18.211      18.493      18.873      19.340      19.880      20.487      21.159      21.900    
  22.722      23.641      24.675      25.832      27.114      28.505      29.973      31.476      32.958      34.360    
  35.627      36.710      37.574      38.208      38.625      38.862      38.971      39.009      39.017      39.009    
  38.971      38.862      38.625      38.208      37.574      36.710      35.627      34.360      32.958      31.476    
  29.973      28.505      27.114      25.832      24.675      23.641      22.722      21.900      21.159      20.487    
  19.880      19.340      18.873      18.493      18.211      18.038      22.092      22.140      22.280      22.499    
  22.781      23.106      23.454      23.812      24.174      24.542      24.928      25.352      25.832      26.387    
  27.023      27.735      28.505      29.300      30.082      30.810      31.445      31.959      32.335      32.575    
  32.695      32.726      32.708      32.678      32.665      32.678      32.708      32.726      32.695      32.575    
  32.335      31.959      31.445      30.810      30.082      29.300      28.505      27.735      27.023      26.387    
  25.832      25.352      24.928      24.542      24.174      23.812      23.454      23.106      22.781      22.499    
  22.280      22.140      26.991      27.023      27.114      27.245      27.390      27.520      27.609      27.641    
  27.609      27.520      27.390      27.245      27.114      27.023      26.991      27.023      27.114      27.245    
  27.390      27.520      27.609      27.641      27.609      27.520      27.390      27.245      27.114      27.023    
  26.991      27.023      27.114      27.245      27.390      27.520      27.609      27.641      27.609      27.520    
  27.390      27.245      27.114      27.023      26.991      27.023      27.114      27.245      27.390      27.520    
  27.609      27.641      27.609      27.520      27.390      27.245      27.114      27.023      32.665      32.678    
  32.708      32.726      32.695      32.575      32.335      31.959      31.445      30.810      30.082      29.300    
  28.505      27.735      27.023      26.387      25.832      25.352      24.928      24.542      24.174      23.812    
  23.454      23.106      22.781      22.499      22.280      22.140      22.092      22.140      22.280      22.499    