diamond Si                              
   5.43100000000000     
     1.007748   -0.000000    0.000000
     0.000000    1.007748   -0.000000
     0.000000   -0.000000    1.007748
   Si
     8
Direct
  0.000000 -0.000000  0.000000
  0.000000  0.500000  0.500000
  0.500000  0.000000  0.500000
  0.500000  0.500000  0.000000
  0.250000  0.250000  0.250000
  0.750000  0.750000  0.250000
  0.750000  0.250000  0.750000
  0.250000  0.750000  0.750000
 
   56   56   56
 -.31292472206E+02 -.26567394945E+02 -.13475282658E+02 0.50664354073E+01 0.25170669247E+02
 0.43051410609E+02 0.55935475460E+02 0.62563245169E+02 0.63208977737E+02 0.59310143912E+02
 0.52880604896E+02 0.45779340582E+02 0.38829522622E+02 0.32394727559E+02 0.26683737994E+02
 0.21781640150E+02 0.17684851547E+02 0.14333240904E+02 0.11636269838E+02 0.94926054684E+01
 0.78037070487E+01 0.64820873025E+01 0.54550779894E+01 0.46652659849E+01 0.40690030799E+01
 0.36342204730E+01 0.33383057480E+01 0.31663638542E+01 0.31099594302E+01 0.31663638542E+01
 0.33383057480E+01 0.36342204730E+01 0.40690030799E+01 0.46652659849E+01 0.54550779894E+01
 0.64820873025E+01 0.78037070487E+01 0.94926054684E+01 0.11636269838E+02 0.14333240904E+02
 0.17684851547E+02 0.21781640150E+02 0.26683737994E+02 0.32394727559E+02 0.38829522622E+02
 0.45779340582E+02 0.52880604896E+02 0.59310143912E+02 0.63208977737E+02 0.62563245169E+02
 0.55935475460E+02 0.43051410609E+02 0.25170669247E+02 0.50664354073E+01 -.13475282658E+02
 -.26567394945E+02 -.26567394945E+02 -.22009135749E+02 -.93877190013E+01 0.84607136746E+01
 0.27760876717E+02 0.44842445158E+02 0.57027930930E+02 0.63118331759E+02 0.63409068713E+02
 0.59324090662E+02 0.52839564934E+02 0.45747142323E+02 0.38817289741E+02 0.32405238191E+02
 0.26714856028E+02 0.21828858221E+02 0.17743089389E+02 0.14397926309E+02 0.11703835775E+02
 0.95605882231E+01 0.78706199937E+01 0.65471982700E+01 0.55181709348E+01 0.47264352215E+01
 0.41285049808E+01 0.36923858585E+01 0.33954987727E+01 0.32229663698E+01 0.31663638542E+01
 0.32229663698E+01 0.33954987727E+01 0.36923858585E+01 0.41285049808E+01 0.47264352215E+01
 0.55181709348E+01 0.65471982700E+01 0.78706199937E+01 0.95605882231E+01 0.11703835775E+02
 0.14397926309E+02 0.17743089389E+02 0.21828858221E+02 0.26714856028E+02 0.32405238191E+02
 0.38817289741E+02 0.45747142323E+02 0.52839564934E+02 0.59324090662E+02 0.63409068713E+02
 0.63118331759E+02 0.57027930930E+02 0.44842445158E+02 0.27760876717E+02 0.84607136746E+01
 -.93877190013E+01 -.22009135749E+02 -.13475282658E+02 -.93877190013E+01 0.19064130201E+01
 0.17802486704E+02 0.34843266259E+02 0.49686815612E+02 0.59926269312E+02 0.64532582864E+02
 0.63858293023E+02 0.59285567787E+02 0.52680195098E+02 0.45627590034E+02 0.38765683737E+02
 0.32427015597E+02 0.26801840908E+02 0.21966496942E+02 0.17915541475E+02 0.14591097397E+02
 0.11906745033E+02 0.97656041151E+01 0.80730632806E+01 0.67446762073E+01 0.57098720883E+01
 0.49125211993E+01 0.43096674864E+01 0.38695764238E+01 0.35697917868E+01 0.33954987727E+01
 0.33383057480E+01 0.33954987727E+01 0.35697917868E+01 0.38695764238E+01 0.43096674864E+01
 0.49125211993E+01 0.57098720883E+01 0.67446762073E+01 0.80730632806E+01 0.97656041151E+01
 0.11906745033E+02 0.14591097397E+02 0.17915541475E+02 0.21966496942E+02 0.26801840908E+02
 0.32427015597E+02 0.38765683737E+02 0.45627590034E+02 0.52680195098E+02 0.59285567787E+02
 0.63858293023E+02 0.64532582864E+02 0.59926269312E+02 0.49686815612E+02 0.34843266259E+02
 0.17802486704E+02 0.19064130201E+01 -.93877190013E+01 0.50664354073E+01 0.84607136746E+01
 0.17802486704E+02 0.30834819840E+02 0.44576975081E+02 0.56176893198E+02 0.63628214582E+02
 0.66148842409E+02 0.64167211623E+02 0.58992476093E+02 0.52309673419E+02 0.45360017621E+02
 0.38634773866E+02 0.32433471281E+02 0.26926995385E+02 0.22183195593E+02 0.18195716598E+02
 0.14910198497E+02 0.12245655336E+02 0.10110870129E+02 0.84161918339E+01 0.70810433960E+01
 0.60375868181E+01 0.52314442947E+01 0.46206822775E+01 0.41741174864E+01 0.38695764238E+01
 0.36923858585E+01 0.36342204730E+01 0.36923858585E+01 0.38695764238E+01 0.41741174864E+01
 0.46206822775E+01 0.52314442947E+01 0.60375868181E+01 0.70810433960E+01 0.84161918339E+01
 0.10110870129E+02 0.12245655336E+02 0.14910198497E+02 0.18195716598E+02 0.22183195593E+02
 0.26926995385E+02 0.32433471281E+02 0.38634773866E+02 0.45360017621E+02 0.52309673419E+02
 0.58992476093E+02 0.64167211623E+02 0.66148842409E+02 0.63628214582E+02 0.56176893198E+02
 0.44576975081E+02 0.30834819840E+02 0.17802486704E+02 0.84607136746E+01 0.25170669247E+02
 0.27760876717E+02 0.34843266259E+02 0.44576975081E+02 0.54549369381E+02 0.62488512293E+02
 0.66856232584E+02 0.67150167652E+02 0.63870571792E+02 0.58219348361E+02 0.51612061409E+02
 0.44867136556E+02 0.38372079686E+02 0.32388277625E+02 0.27065143517E+02 0.22462211027E+02
 0.18573810828E+02 0.15351384949E+02 0.12721823593E+02 0.10601859749E+02 0.89087785493E+01
 0.75674835881E+01 0.65141252941E+01 0.56970189063E+01 0.50759295779E+01 0.46206822775E+01
 0.43096674864E+01 0.41285049808E+01 0.40690030799E+01 0.41285049808E+01 0.43096674864E+01
 0.46206822775E+01 0.50759295779E+01 0.56970189063E+01 0.65141252941E+01 0.75674835881E+01
 0.89087785493E+01 0.10601859749E+02 0.12721823593E+02 0.15351384949E+02 0.18573810828E+02
 0.22462211027E+02 0.27065143517E+02 0.32388277625E+02 0.38372079686E+02 0.44867136556E+02
 0.51612061409E+02 0.58219348361E+02 0.63870571792E+02 0.67150167652E+02 0.66856232584E+02
 0.62488512293E+02 0.54549369381E+02 0.44576975081E+02 0.34843266259E+02 0.27760876717E+02
 0.43051410609E+02 0.44842445158E+02 0.49686815612E+02 0.56176893198E+02 0.62488512293E+02
 0.66944770678E+02 0.68478348254E+02 0.66854097250E+02 0.62617767688E+02 0.56827908272E+02
 0.50488669217E+02 0.44080336511E+02 0.37927995303E+02 0.32254518680E+02 0.27188911103E+02
 0.22784373158E+02 0.19038305758E+02 0.15910366840E+02 0.13337577454E+02 0.11246650603E+02
 0.95635988561E+01 0.82203608559E+01 0.71584020127E+01 0.63298375938E+01 0.56970189063E+01
 0.52314442947E+01 0.49125211993E+01 0.47264352215E+01 0.46652659849E+01 0.47264352215E+01
 0.49125211993E+01 0.52314442947E+01 0.56970189063E+01 0.63298375938E+01 0.71584020127E+01
 0.82203608559E+01 0.95635988561E+01 0.11246650603E+02 0.13337577454E+02 0.15910366840E+02
 0.19038305758E+02 0.22784373158E+02 0.27188911103E+02 0.32254518680E+02 0.37927995303E+02
 0.44080336511E+02 0.50488669217E+02 0.56827908272E+02 0.62617767688E+02 0.66854097250E+02
 0.68478348254E+02 0.66944770678E+02 0.62488512293E+02 0.56176893198E+02 0.49686815612E+02
 0.44842445158E+02 0.55935475460E+02 0.57027930930E+02 0.59926269312E+02 0.63628214582E+02
 0.66856232584E+02 0.68478348254E+02 0.67845676912E+02 0.64940776642E+02 0.60312459471E+02
 0.54786758239E+02 0.48888897635E+02 0.42959903746E+02 0.37268909895E+02 0.32003148145E+02
 0.27274166557E+02 0.23131577595E+02 0.19578197530E+02 0.16583828676E+02 0.14097250761E+02
 0.12056623854E+02 0.10398084568E+02 0.90619648044E+01 0.79963564037E+01 0.71584020127E+01
 0.65141252941E+01 0.60375868181E+01 0.57098720883E+01 0.55181709348E+01 0.54550779894E+01
 0.55181709348E+01 0.57098720883E+01 0.60375868181E+01 0.65141252941E+01 0.71584020127E+01
 0.79963564037E+01 0.90619648044E+01 0.10398084568E+02 0.12056623854E+02 0.14097250761E+02
 0.16583828676E+02 0.19578197530E+02 0.23131577595E+02 0.27274166557E+02 0.32003148145E+02
 0.37268909895E+02 0.42959903746E+02 0.48888897635E+02 0.54786758239E+02 0.60312459471E+02
 0.64940776642E+02 0.67845676912E+02 0.68478348254E+02 0.66856232584E+02 0.63628214582E+02
 0.59926269312E+02 0.57027930930E+02 0.62563245169E+02 0.63118331759E+02 0.64532582864E+02
 0.66148842409E+02 0.67150167652E+02 0.66854097250E+02 0.64940776642E+02 0.61538230967E+02
 0.57125645144E+02 0.52120321602E+02 0.46822501176E+02 0.41504445746E+02 0.36384531137E+02
 0.31618729803E+02 0.27304514924E+02 0.23490245888E+02 0.20185581310E+02 0.17371295602E+02
 0.15008511657E+02 0.13047451684E+02 0.11435165074E+02 0.10121373998E+02 0.90619648044E+01
 0.82203608559E+01 0.75674835881E+01 0.70810433960E+01 0.67446762073E+01 0.65471982700E+01
 0.64820873025E+01 0.65471982700E+01 0.67446762073E+01 0.70810433960E+01 0.75674835881E+01
 0.82203608559E+01 0.90619648044E+01 0.10121373998E+02 0.11435165074E+02 0.13047451684E+02
 0.15008511657E+02 0.17371295602E+02 0.20185581310E+02 0.23490245888E+02 0.27304514924E+02
 0.31618729803E+02 0.36384531137E+02 0.41504445746E+02 0.46822501176E+02 0.52120321602E+02
 0.57125645144E+02 0.61538230967E+02 0.64940776642E+02 0.66854097250E+02 0.67150167652E+02
 0.66148842409E+02 0.64532582864E+02 0.63118331759E+02 0.63208977737E+02 0.63409068713E+02
 0.63858293023E+02 0.64167211623E+02 0.63870571792E+02 0.62617767688E+02 0.60312459471E+02
 0.57125645144E+02 0.53261546699E+02 0.48928178988E+02 0.44353532808E+02 0.39749076283E+02
 0.35288738216E+02 0.31101748667E+02 0.27274166557E+02 0.23854134719E+02 0.20858045137E+02
 0.18276977239E+02 0.16083686204E+02 0.14240033818E+02 0.12703997875E+02 0.11435165074E+02
 0.10398084568E+02 0.95635988561E+01 0.89087785493E+01 0.84161918339E+01 0.80730632806E+01
 0.78706199937E+01 0.78037070487E+01 0.78706199937E+01 0.80730632806E+01 0.84161918339E+01
 0.89087785493E+01 0.95635988561E+01 0.10398084568E+02 0.11435165074E+02 0.12703997875E+02
 0.14240033818E+02 0.16083686204E+02 0.18276977239E+02 0.20858045137E+02 0.23854134719E+02
 0.27274166557E+02 0.31101748667E+02 0.35288738216E+02 0.39749076283E+02 0.44353532808E+02
 0.48928178988E+02 0.53261546699E+02 0.57125645144E+02 0.60312459471E+02 0.62617767688E+02
 0.63870571792E+02 0.64167211623E+02 0.63858293023E+02 0.63409068713E+02 0.59310143912E+02
 0.59324090662E+02 0.59285567787E+02 0.58992476093E+02 0.58219348361E+02 0.56827908272E+02
 0.54786758239E+02 0.52120321602E+02 0.48928178988E+02 0.45359898730E+02 0.41582745581E+02
 0.37756001374E+02 0.34015615346E+02 0.30467924195E+02 0.27188911103E+02 0.24225872107E+02
 0.21600121710E+02 0.19310836850E+02 0.17340384800E+02 0.15660765102E+02 0.14240033818E+02
 0.13047451684E+02 0.12056623854E+02 0.11246650603E+02 0.10601859749E+02 0.10110870129E+02
 0.97656041151E+01 0.95605882231E+01 0.94926054684E+01 0.95605882231E+01 0.97656041151E+01
 0.10110870129E+02 0.10601859749E+02 0.11246650603E+02 0.12056623854E+02 0.13047451684E+02
 0.14240033818E+02 0.15660765102E+02 0.17340384800E+02 0.19310836850E+02 0.21600121710E+02
 0.24225872107E+02 0.27188911103E+02 0.30467924195E+02 0.34015615346E+02 0.37756001374E+02
 0.41582745581E+02 0.45359898730E+02 0.48928178988E+02 0.52120321602E+02 0.54786758239E+02
 0.56827908272E+02 0.58219348361E+02 0.58992476093E+02 0.59285567787E+02 0.59324090662E+02
 0.52880604896E+02 0.52839564934E+02 0.52680195098E+02 0.52309673419E+02 0.51612061409E+02
 0.50488669217E+02 0.48888897635E+02 0.46822501176E+02 0.44353532808E+02 0.41582745581E+02
 0.38627058116E+02 0.35602503558E+02 0.32613179150E+02 0.29745426989E+02 0.27065143517E+02
 0.24616673119E+02 0.22423045337E+02 0.20488084358E+02 0.18800648757E+02 0.17340384800E+02
 0.16083686204E+02 0.15008511657E+02 0.14097250761E+02 0.13337577454E+02 0.12721823593E+02
 0.12245655336E+02 0.11906745033E+02 0.11703835775E+02 0.11636269838E+02 0.11703835775E+02
 0.11906745033E+02 0.12245655336E+02 0.12721823593E+02 0.13337577454E+02 0.14097250761E+02
 0.15008511657E+02 0.16083686204E+02 0.17340384800E+02 0.18800648757E+02 0.20488084358E+02
 0.22423045337E+02 0.24616673119E+02 0.27065143517E+02 0.29745426989E+02 0.32613179150E+02
 0.35602503558E+02 0.38627058116E+02 0.41582745581E+02 0.44353532808E+02 0.46822501176E+02
 0.48888897635E+02 0.50488669217E+02 0.51612061409E+02 0.52309673419E+02 0.52680195098E+02
 0.52839564934E+02 0.45779340582E+02 0.45747142323E+02 0.45627590034E+02 0.45360017621E+02
 0.44867136556E+02 0.44080336511E+02 0.42959903746E+02 0.41504445746E+02 0.39749076283E+02
 0.37756001374E+02 0.35602503558E+02 0.33370152599E+02 0.31136762353E+02 0.28970747903E+02
 0.26926995385E+02 0.25043943595E+02 0.23342375032E+02 0.21826594540E+02 0.20488084358E+02
 0.19310836850E+02 0.18276977239E+02 0.17371295602E+02 0.16583828676E+02 0.15910366840E+02
 0.15351384949E+02 0.14910198497E+02 0.14591097397E+02 0.14397926309E+02 0.14333240904E+02
 0.14397926309E+02 0.14591097397E+02 0.14910198497E+02 0.15351384949E+02 0.15910366840E+02
 0.16583828676E+02 0.17371295602E+02 0.18276977239E+02 0.19310836850E+02 0.20488084358E+02
 0.21826594540E+02 0.23342375032E+02 0.25043943595E+02 0.26926995385E+02 0.28970747903E+02
 0.31136762353E+02 0.33370152599E+02 0.35602503558E+02 0.37756001374E+02 0.39749076283E+02
 0.41504445746E+02 0.42959903746E+02 0.44080336511E+02 0.44867136556E+02 0.45360017621E+02
 0.45627590034E+02 0.45747142323E+02 0.38829522622E+02 0.38817289741E+02 0.38765683737E+02
 0.38634773866E+02 0.38372079686E+02 0.37927995303E+02 0.37268909895E+02 0.36384531137E+02
 0.35288738216E+02 0.34015615346E+02 0.32613179150E+02 0.31136762353E+02 0.29642883331E+02
 0.28183661149E+02 0.26801840908E+02 0.25526977373E+02 0.24373653751E+02 0.23342375032E+02
 0.22423045337E+02 0.21600121710E+02 0.20858045137E+02 0.20185581310E+02 0.19578197530E+02
 0.19038305758E+02 0.18573810828E+02 0.18195716598E+02 0.17915541475E+02 0.17743089389E+02
 0.17684851547E+02 0.17743089389E+02 0.17915541475E+02 0.18195716598E+02 0.18573810828E+02
 0.19038305758E+02 0.19578197530E+02 0.20185581310E+02 0.20858045137E+02 0.21600121710E+02
 0.22423045337E+02 0.23342375032E+02 0.24373653751E+02 0.25526977373E+02 0.26801840908E+02
 0.28183661149E+02 0.29642883331E+02 0.31136762353E+02 0.32613179150E+02 0.34015615346E+02
 0.35288738216E+02 0.36384531137E+02 0.37268909895E+02 0.37927995303E+02 0.38372079686E+02
 0.38634773866E+02 0.38765683737E+02 0.38817289741E+02 0.32394727559E+02 0.32405238191E+02
 0.32427015597E+02 0.32433471281E+02 0.32388277625E+02 0.32254518680E+02 0.32003148145E+02
 0.31618729803E+02 0.31101748667E+02 0.30467924195E+02 0.29745426989E+02 0.28970747903E+02
 0.28183661149E+02 0.27421698442E+02 0.26714856028E+02 0.26081571773E+02 0.25526977373E+02
 0.25043943595E+02 0.24616673119E+02 0.24225872107E+02 0.23854134719E+02 0.23490245888E+02
 0.23131577595E+02 0.22784373158E+02 0.22462211027E+02 0.22183195593E+02 0.21966496942E+02
 0.21828858221E+02 0.21781640150E+02 0.21828858221E+02 0.21966496942E+02 0.22183195593E+02
 0.22462211027E+02 0.22784373158E+02 0.23131577595E+02 0.23490245888E+02 0.23854134719E+02
 0.24225872107E+02 0.24616673119E+02 0.25043943595E+02 0.25526977373E+02 0.26081571773E+02
 0.26714856028E+02 0.27421698442E+02 0.28183661149E+02 0.28970747903E+02 0.29745426989E+02
 0.30467924195E+02 0.31101748667E+02 0.31618729803E+02 0.32003148145E+02 0.32254518680E+02
 0.32388277625E+02 0.32433471281E+02 0.32427015597E+02 0.32405238191E+02 0.26683737994E+02
 0.26714856028E+02 0.26801840908E+02 0.26926995385E+02 0.27065143517E+02 0.27188911103E+02
 0.27274166557E+02 0.27304514924E+02 0.27274166557E+02 0.27188911103E+02 0.27065143517E+02
 0.26926995385E+02 0.26801840908E+02 0.26714856028E+02 0.26683737994E+02 0.26714856028E+02
 0.26801840908E+02 0.26926995385E+02 0.27065143517E+02 0.27188911103E+02 0.27274166557E+02
 0.27304514924E+02 0.27274166557E+02 0.27188911103E+02 0.27065143517E+02 0.26926995385E+02
 0.26801840908E+02 0.26714856028E+02 0.26683737994E+02 0.26714856028E+02 0.26801840908E+02
 0.26926995385E+02 0.27065143517E+02 0.27188911103E+02 0.27274166557E+02 0.27304514924E+02
 0.27274166557E+02 0.27188911103E+02 0.27065143517E+02 0.26926995385E+02 0.26801840908E+02
 0.26714856028E+02 0.26683737994E+02 0.26714856028E+02 0.26801840908E+02 0.26926995385E+02
 0.27065143517E+02 0.27188911103E+02 0.27274166557E+02 0.27304514924E+02 0.27274166557E+02
 0.27188911103E+02 0.27065143517E+02 0.26926995385E+02 0.26801840908E+02 0.26714856028E+02
 0.21781640150E+02 0.21828858221E+02 0.21966496942E+02 0.22183195593E+02 0.22462211027E+02
 0.22784373158E+02 0.23131577595E+02 0.23490245888E+02 0.23854134719E+02 0.24225872107E+02
 0.24616673119E+02 0.25043943595E+02 0.25526977373E+02 0.26081571773E+02 0.26714856028E+02
 0.27421698442E+02 0.28183661149E+02 0.28970747903E+02 0.29745426989E+02 0.30467924195E+02
 0.31101748667E+02 0.31618729803E+02 0.32003148145E+02 0.32254518680E+02 0.32388277625E+02
 0.32433471281E+02 0.32427015597E+02 0.32405238191E+02 0.32394727559E+02 0.32405238191E+02
 0.32427015597E+02 0.32433471281E+02 0.32388277625E+02 0.32254518680E+02 0.32003148145E+02
 0.31618729803E+02 0.31101748667E+02 0.30467924195E+02 0.29745426989E+02 0.28970747903E+02
 0.28183661149E+02 0.27421698442E+02 0.26714856028E+02 0.26081571773E+02 0.25526977373E+02
 0.25043943595E+02 0.24616673119E+02 0.24225872107E+02 0.23854134719E+02 0.23490245888E+02
 0.23131577595E+02 0.22784373158E+02 0.22462211027E+02 0.22183195593E+02 0.21966496942E+02
 0.21828858221E+02 0.17684851547E+02 0.17743089389E+02 0.17915541475E+02 0.18195716598E+02
 0.18573810828E+02 0.19038305758E+02 0.19578197530E+02 0.20185581310E+02 0.20858045137E+02
 0.21600121710E+02 0.22423045337E+02 0.23342375032E+02 0.24373653751E+02 0.25526977373E+02
 0.26801840908E+02 0.28183661149E+02 0.29642883331E+02 0.31136762353E+02 0.32613179150E+02
 0.34015615346E+02 0.35288738216E+02 0.36384531137E+02 0.37268909895E+02 0.37927995303E+02
 0.38372079686E+02 0.38634773866E+02 0.38765683737E+02 0.38817289741E+02 0.38829522622E+02
 0.38817289741E+02 0.38765683737E+02 0.38634773866E+02 0.38372079686E+02 0.37927995303E+02
 0.37268909895E+02 0.36384531137E+02 0.35288738216E+02 0.34015615346E+02 0.32613179150E+02
 0.31136762353E+02 0.29642883331E+02 0.28183661149E+02 0.26801840908E+02 0.25526977373E+02
 0.24373653751E+02 0.23342375032E+02 0.22423045337E+02 0.21600121710E+02 0.20858045137E+02
 0.20185581310E+02 0.19578197530E+02 0.19038305758E+02 0.18573810828E+02 0.18195716598E+02
 0.17915541475E+02 0.17743089389E+02 0.14333240904E+02 0.14397926309E+02 0.14591097397E+02
 0.14910198497E+02 0.15351384949E+02 0.15910366840E+02 0.16583828676E+02 0.17371295602E+02
 0.18276977239E+02 0.19310836850E+02 0.20488084358E+02 0.21826594540E+02 0.23342375032E+02
 0.25043943595E+02 0.26926995385E+02 0.28970747903E+02 0.31136762353E+02 0.33370152599E+02
 0.35602503558E+02 0.37756001374E+02 0.39749076283E+02 0.41504445746E+02 0.42959903746E+02
 0.44080336511E+02 0.44867136556E+02 0.45360017621E+02 0.45627590034E+02 0.45747142323E+02
 0.45779340582E+02 0.45747142323E+02 0.45627590034E+02 0.45360017621E+02 0.44867136556E+02
 0.44080336511E+02 0.42959903746E+02 0.41504445746E+02 0.39749076283E+02 0.37756001374E+02
 0.35602503558E+02 0.33370152599E+02 0.31136762353E+02 0.28970747903E+02 0.26926995385E+02
 0.25043943595E+02 0.23342375032E+02 0.21826594540E+02 0.20488084358E+02 0.19310836850E+02
 0.18276977239E+02 0.17371295602E+02 0.16583828676E+02 0.15910366840E+02 0.15351384949E+02
 0.14910198497E+02 0.14591097397E+02 0.14397926309E+02 0.11636269838E+02 0.11703835775E+02
 0.11906745033E+02 0.12245655336E+02 0.12721823593E+02 0.13337577454E+02 0.14097250761E+02
 0.15008511657E+02 0.16083686204E+02 0.17340384800E+02 0.18800648757E+02 0.20488084358E+02
 0.22423045337E+02 0.24616673119E+02 0.27065143517E+02 0.29745426989E+02 0.32613179150E+02
 0.35602503558E+02 0.38627058116E+02 0.41582745581E+02 0.44353532808E+02 0.46822501176E+02
 0.48888897635E+02 0.50488669217E+02 0.51612061409E+02 0.52309673419E+02 0.52680195098E+02
 0.52839564934E+02 0.52880604896E+02 0.52839564934E+02 0.52680195098E+02 0.52309673419E+02
 0.51612061409E+02 0.50488669217E+02 0.48888897635E+02 0.46822501176E+02 0.44353532808E+02
 0.41582745581E+02 0.38627058116E+02 0.35602503558E+02 0.32613179150E+02 0.29745426989E+02
 0.27065143517E+02 0.24616673119E+02 0.22423045337E+02 0.20488084358E+02 0.18800648757E+02
 0.17340384800E+02 0.16083686204E+02 0.15008511657E+02 0.14097250761E+02 0.13337577454E+02
 0.12721823593E+02 0.12245655336E+02 0.11906745033E+02 0.11703835775E+02 0.94926054684E+01
 0.95605882231E+01 0.97656041151E+01 0.10110870129E+02 0.10601859749E+02 0.11246650603E+02
 0.12056623854E+02 0.13047451684E+02 0.14240033818E+02 0.15660765102E+02 0.17340384800E+02
 0.19310836850E+02 0.21600121710E+02 0.24225872107E+02 0.27188911103E+02 0.30467924195E+02
 0.34015615346E+02 0.37756001374E+02 0.41582745581E+02 0.45359898730E+02 0.48928178988E+02
 0.52120321602E+02 0.54786758239E+02 0.56827908272E+02 0.58219348361E+02 0.58992476093E+02
 0.59285567787E+02 0.59324090662E+02 0.59310143912E+02 0.59324090662E+02 0.59285567787E+02
 0.58992476093E+02 0.58219348361E+02 0.56827908272E+02 0.54786758239E+02 0.52120321602E+02
 0.48928178988E+02 0.45359898730E+02 0.41582745581E+02 0.37756001374E+02 0.34015615346E+02
 0.30467924195E+02 0.27188911103E+02 0.24225872107E+02 0.21600121710E+02 0.19310836850E+02
 0.17340384800E+02 0.15660765102E+02 0.14240033818E+02 0.13047451684E+02 0.12056623854E+02
 0.11246650603E+02 0.10601859749E+02 0.10110870129E+02 0.97656041151E+01 0.95605882231E+01
 0.78037070487E+01 0.78706199937E+01 0.80730632806E+01 0.84161918339E+01 0.89087785493E+01
 0.95635988561E+01 0.10398084568E+02 0.11435165074E+02 0.12703997875E+02 0.14240033818E+02
 0.16083686204E+02 0.18276977239E+02 0.20858045137E+02 0.23854134719E+02 0.27274166557E+02
 0.31101748667E+02 0.35288738216E+02 0.39749076283E+02 0.44353532808E+02 0.48928178988E+02
 0.53261546699E+02 0.57125645144E+02 0.60312459471E+02 0.62617767688E+02 0.63870571792E+02
 0.64167211623E+02 0.63858293023E+02 0.63409068713E+02 0.63208977737E+02 0.63409068713E+02
 0.63858293023E+02 0.64167211623E+02 0.63870571792E+02 0.62617767688E+02 0.60312459471E+02
 0.57125645144E+02 0.53261546699E+02 0.48928178988E+02 0.44353532808E+02 0.39749076283E+02
 0.35288738216E+02 0.31101748667E+02 0.27274166557E+02 0.23854134719E+02 0.20858045137E+02
 0.18276977239E+02 0.16083686204E+02 0.14240033818E+02 0.12703997875E+02 0.11435165074E+02
 0.10398084568E+02 0.95635988561E+01 0.89087785493E+01 0.84161918339E+01 0.80730632806E+01
 0.78706199937E+01 0.64820873025E+01 0.65471982700E+01 0.67446762073E+01 0.70810433960E+01
 0.75674835881E+01 0.82203608559E+01 0.90619648044E+01 0.10121373998E+02 0.11435165074E+02
 0.13047451684E+02 0.15008511657E+02 0.17371295602E+02 0.20185581310E+02 0.23490245888E+02
 0.27304514924E+02 0.31618729803E+02 0.36384531137E+02 0.41504445746E+02 0.46822501176E+02
 0.52120321602E+02 0.57125645144E+02 0.61538230967E+02 0.64940776642E+02 0.66854097250E+02
 0.67150167652E+02 0.66148842409E+02 0.64532582864E+02 0.63118331759E+02 0.62563245169E+02
 0.63118331759E+02 0.64532582864E+02 0.66148842409E+02 0.67150167652E+02 0.66854097250E+02
 0.64940776642E+02 0.61538230967E+02 0.57125645144E+02 0.52120321602E+02 0.46822501176E+02
 0.41504445746E+02 0.36384531137E+02 0.31618729803E+02 0.27304514924E+02 0.23490245888E+02
 0.20185581310E+02 0.17371295602E+02 0.15008511657E+02 0.13047451684E+02 0.11435165074E+02
 0.10121373998E+02 0.90619648044E+01 0.82203608559E+01 0.75674835881E+01 0.70810433960E+01
 0.67446762073E+01 0.65471982700E+01 0.54550779894E+01 0.55181709348E+01 0.57098720883E+01
 0.60375868181E+01 0.65141252941E+01 0.71584020127E+01 0.79963564037E+01 0.90619648044E+01
 0.10398084568E+02 0.12056623854E+02 0.14097250761E+02 0.16583828676E+02 0.19578197530E+02
 0.23131577595E+02 0.27274166557E+02 0.32003148145E+02 0.37268909895E+02 0.42959903746E+02
 0.48888897635E+02 0.54786758239E+02 0.60312459471E+02 0.64940776642E+02 0.67845676912E+02
 0.68478348254E+02 0.66856232584E+02 0.63628214582E+02 0.59926269312E+02 0.57027930930E+02
 0.55935475460E+02 0.57027930930E+02 0.59926269312E+02 0.63628214582E+02 0.66856232584E+02
 0.68478348254E+02 0.67845676912E+02 0.64940776642E+02 0.60312459471E+02 0.54786758239E+02
 0.48888897635E+02 0.42959903746E+02 0.37268909895E+02 0.32003148145E+02 0.27274166557E+02
 0.23131577595E+02 0.19578197530E+02 0.16583828676E+02 0.14097250761E+02 0.12056623854E+02
 0.10398084568E+02 0.90619648044E+01 0.79963564037E+01 0.71584020127E+01 0.65141252941E+01
 0.60375868181E+01 0.57098720883E+01 0.55181709348E+01 0.46652659849E+01 0.47264352215E+01
 0.49125211993E+01 0.52314442947E+01 0.56970189063E+01 0.63298375938E+01 0.71584020127E+01
 0.82203608559E+01 0.95635988561E+01 0.11246650603E+02 0.13337577454E+02 0.15910366840E+02
 0.19038305758E+02 0.22784373158E+02 0.27188911103E+02 0.32254518680E+02 0.37927995303E+02
 0.44080336511E+02 0.50488669217E+02 0.56827908272E+02 0.62617767688E+02 0.66854097250E+02
 0.68478348254E+02 0.66944770678E+02 0.62488512293E+02 0.56176893198E+02 0.49686815612E+02
 0.44842445158E+02 0.43051410609E+02 0.44842445158E+02 0.49686815612E+02 0.56176893198E+02
 0.62488512293E+02 0.66944770678E+02 0.68478348254E+02 0.66854097250E+02 0.62617767688E+02
 0.56827908272E+02 0.50488669217E+02 0.44080336511E+02 0.37927995303E+02 0.32254518680E+02
 0.27188911103E+02 0.22784373158E+02 0.19038305758E+02 0.15910366840E+02 0.13337577454E+02
 0.11246650603E+02 0.95635988561E+01 0.82203608559E+01 0.71584020127E+01 0.63298375938E+01
 0.56970189063E+01 0.52314442947E+01 0.49125211993E+01 0.47264352215E+01 0.40690030799E+01
 0.41285049808E+01 0.43096674864E+01 0.46206822775E+01 0.50759295779E+01 0.56970189063E+01
 0.65141252941E+01 0.75674835881E+01 0.89087785493E+01 0.10601859749E+02 0.12721823593E+02
 0.15351384949E+02 0.18573810828E+02 0.22462211027E+02 0.27065143517E+02 0.32388277625E+02
 0.38372079686E+02 0.44867136556E+02 0.51612061409E+02 0.58219348361E+02 0.63870571792E+02
 0.67150167652E+02 0.66856232584E+02 0.62488512293E+02 0.54549369381E+02 0.44576975081E+02
 0.34843266259E+02 0.27760876717E+02 0.25170669247E+02 0.27760876717E+02 0.34843266259E+02
 0.44576975081E+02 0.54549369381E+02 0.62488512293E+02 0.66856232584E+02 0.67150167652E+02
 0.63870571792E+02 0.58219348361E+02 0.51612061409E+02 0.44867136556E+02 0.38372079686E+02
 0.32388277625E+02 0.27065143517E+02 0.22462211027E+02 0.18573810828E+02 0.15351384949E+02
 0.12721823593E+02 0.10601859749E+02 0.89087785493E+01 0.75674835881E+01 0.65141252941E+01
 0.56970189063E+01 0.50759295779E+01 0.46206822775E+01 0.43096674864E+01 0.41285049808E+01
 0.36342204730E+01 0.36923858585E+01 0.38695764238E+01 0.41741174864E+01 0.46206822775E+01
 0.52314442947E+01 0.60375868181E+01 0.70810433960E+01 0.84161918339E+01 0.10110870129E+02
 0.12245655336E+02 0.14910198497E+02 0.18195716598E+02 0.22183195593E+02 0.26926995385E+02
 0.32433471281E+02 0.38634773866E+02 0.45360017621E+02 0.52309673419E+02 0.58992476093E+02
 0.64167211623E+02 0.66148842409E+02 0.63628214582E+02 0.56176893198E+02 0.44576975081E+02
 0.30834819840E+02 0.17802486704E+02 0.84607136746E+01 0.50664354073E+01 0.84607136746E+01
 0.17802486704E+02 0.30834819840E+02 0.44576975081E+02 0.56176893198E+02 0.63628214582E+02
 0.66148842409E+02 0.64167211623E+02 0.58992476093E+02 0.52309673419E+02 0.45360017621E+02
 0.38634773866E+02 0.32433471281E+02 0.26926995385E+02 0.22183195593E+02 0.18195716598E+02
 0.14910198497E+02 0.12245655336E+02 0.10110870129E+02 0.84161918339E+01 0.70810433960E+01
 0.60375868181E+01 0.52314442947E+01 0.46206822775E+01 0.41741174864E+01 0.38695764238E+01
 0.36923858585E+01 0.33383057480E+01 0.33954987727E+01 0.35697917868E+01 0.38695764238E+01
 0.43096674864E+01 0.49125211993E+01 0.57098720883E+01 0.67446762073E+01 0.80730632806E+01
 0.97656041151E+01 0.11906745033E+02 0.14591097397E+02 0.17915541475E+02 0.21966496942E+02
 0.26801840908E+02 0.32427015597E+02 0.38765683737E+02 0.45627590034E+02 0.52680195098E+02
 0.59285567787E+02 0.63858293023E+02 0.64532582864E+02 0.59926269312E+02 0.49686815612E+02
 0.34843266259E+02 0.17802486704E+02 0.19064130201E+01 -.93877190013E+01 -.13475282658E+02
 -.93877190013E+01 0.19064130201E+01 0.17802486704E+02 0.34843266259E+02 0.49686815612E+02
 0.59926269312E+02 0.64532582864E+02 0.63858293023E+02 0.59285567787E+02 0.52680195098E+02
 0.45627590034E+02 0.38765683737E+02 0.32427015597E+02 0.26801840908E+02 0.21966496942E+02
 0.17915541475E+02 0.14591097397E+02 0.11906745033E+02 0.97656041151E+01 0.80730632806E+01
 0.67446762073E+01 0.57098720883E+01 0.49125211993E+01 0.43096674864E+01 0.38695764238E+01
 0.35697917868E+01 0.33954987727E+01 0.31663638542E+01 0.32229663698E+01 0.33954987727E+01
 0.36923858585E+01 0.41285049808E+01 0.47264352215E+01 0.55181709348E+01 0.65471982700E+01
 0.78706199937E+01 0.95605882231E+01 0.11703835775E+02 0.14397926309E+02 0.17743089389E+02
 0.21828858221E+02 0.26714856028E+02 0.32405238191E+02 0.38817289741E+02 0.45747142323E+02
 0.52839564934E+02 0.59324090662E+02 0.63409068713E+02 0.63118331759E+02 0.57027930930E+02
 0.44842445158E+02 0.27760876717E+02 0.84607136746E+01 -.93877190013E+01 -.22009135749E+02
 -.26567394945E+02 -.22009135749E+02 -.93877190013E+01 0.84607136746E+01 0.27760876717E+02
 0.44842445158E+02 0.57027930930E+02 0.63118331759E+02 0.63409068713E+02 0.59324090662E+02
 0.52839564934E+02 0.45747142323E+02 0.38817289741E+02 0.32405238191E+02 0.26714856028E+02
 0.21828858221E+02 0.17743089389E+02 0.14397926309E+02 0.11703835775E+02 0.95605882231E+01
 0.78706199937E+01 0.65471982700E+01 0.55181709348E+01 0.47264352215E+01 0.41285049808E+01
 0.36923858585E+01 0.33954987727E+01 0.32229663698E+01 0.31099594302E+01 0.31663638542E+01
 0.33383057480E+01 0.36342204730E+01 0.40690030799E+01 0.46652659849E+01 0.54550779894E+01
 0.64820873025E+01 0.78037070487E+01 0.94926054684E+01 0.11636269838E+02 0.14333240904E+02
 0.17684851547E+02 0.21781640150E+02 0.26683737994E+02 0.32394727559E+02 0.38829522622E+02
 0.45779340582E+02 0.52880604896E+02 0.59310143912E+02 0.63208977737E+02 0.62563245169E+02
 0.55935475460E+02 0.43051410609E+02 0.25170669247E+02 0.50664354073E+01 -.13475282658E+02
 -.26567394945E+02 -.31292472206E+02 -.26567394945E+02 -.13475282658E+02 0.50664354073E+01
 0.25170669247E+02 0.43051410609E+02 0.55935475460E+02 0.62563245169E+02 0.63208977737E+02
 0.59310143912E+02 0.52880604896E+02 0.45779340582E+02 0.38829522622E+02 0.32394727559E+02
 0.26683737994E+02 0.21781640150E+02 0.17684851547E+02 0.14333240904E+02 0.11636269838E+02
 0.94926054684E+01 0.78037070487E+01 0.64820873025E+01 0.54550779894E+01 0.46652659849E+01