   8   8   0   0
  0.2002393E+02  0.5431000E-09  0.5431000E-09  0.5431000E-09  0.1000000E-14
  1.000000000000000E-004
  CAR 
 diamond Si                              
     11.07814958     -6.39320439  301      5.37175058      1.00000000
     -6.393  0.0000E+00  0.0000E+00
     -6.335  0.0000E+00  0.0000E+00
     -6.277  0.0000E+00  0.0000E+00
     -6.218  0.0000E+00  0.0000E+00
     -6.160  0.0000E+00  0.0000E+00
     -6.102  0.0000E+00  0.0000E+00
     -6.044  0.0000E+00  0.0000E+00
     -5.986  0.0000E+00  0.0000E+00
     -5.927  0.8091E-13  0.4712E-14
     -5.869  0.3236E-10  0.1889E-11
     -5.811  0.6653E-08  0.3893E-09
     -5.753  0.7042E-06  0.4140E-07
     -5.694  0.3849E-04  0.2283E-05
     -5.636  0.1090E-02  0.6578E-04
     -5.578  0.1606E-01  0.1001E-02
     -5.520  0.1236E+00  0.8197E-02
     -5.461  0.4981E+00  0.3720E-01
     -5.403  0.1055E+01  0.9867E-01
     -5.345  0.1178E+01  0.1673E+00
     -5.287  0.6921E+00  0.2076E+00
     -5.228  0.2140E+00  0.2200E+00
     -5.170  0.3471E-01  0.2220E+00
     -5.112  0.2944E-02  0.2222E+00
     -5.054  0.1300E-03  0.2222E+00
     -4.995  0.2979E-05  0.2222E+00
     -4.937  0.3529E-07  0.2222E+00
     -4.879  0.2155E-09  0.2222E+00
     -4.821  0.6765E-12  0.2222E+00
     -4.763  0.8473E-15  0.2222E+00
     -4.704  0.0000E+00  0.2222E+00
     -4.646  0.0000E+00  0.2222E+00
     -4.588  0.0000E+00  0.2222E+00
     -4.530  0.0000E+00  0.2222E+00
     -4.471  0.0000E+00  0.2222E+00
     -4.413  0.0000E+00  0.2222E+00
     -4.355  0.0000E+00  0.2222E+00
     -4.297  0.0000E+00  0.2222E+00
     -4.238  0.0000E+00  0.2222E+00
     -4.180  0.0000E+00  0.2222E+00
     -4.122  0.0000E+00  0.2222E+00
     -4.064  0.5846E-13  0.2222E+00
     -4.005  0.2710E-10  0.2222E+00
     -3.947  0.6459E-08  0.2222E+00
     -3.889  0.7924E-06  0.2222E+00
     -3.831  0.5017E-04  0.2222E+00
     -3.773  0.1644E-02  0.2223E+00
     -3.714  0.2801E-01  0.2240E+00
     -3.656  0.2489E+00  0.2384E+00
     -3.598  0.1158E+01  0.3059E+00
     -3.540  0.2832E+01  0.4708E+00
     -3.481  0.3644E+01  0.6831E+00
     -3.423  0.2471E+01  0.8269E+00
     -3.365  0.8814E+00  0.8783E+00
     -3.307  0.1651E+00  0.8879E+00
     -3.248  0.1618E-01  0.8888E+00
     -3.190  0.8267E-03  0.8889E+00
     -3.132  0.2193E-04  0.8889E+00
     -3.074  0.3010E-06  0.8889E+00
     -3.015  0.2130E-08  0.8889E+00
     -2.957  0.7755E-11  0.8889E+00
     -2.899  0.1525E-13  0.8889E+00
     -2.841  0.0000E+00  0.8889E+00
     -2.782  0.0000E+00  0.8889E+00
     -2.724  0.0000E+00  0.8889E+00
     -2.666  0.0000E+00  0.8889E+00
     -2.608  0.0000E+00  0.8889E+00
     -2.550  0.0000E+00  0.8889E+00
     -2.491  0.0000E+00  0.8889E+00
     -2.433  0.0000E+00  0.8889E+00
     -2.375  0.0000E+00  0.8889E+00
     -2.317  0.0000E+00  0.8889E+00
     -2.258  0.0000E+00  0.8889E+00
     -2.200  0.0000E+00  0.8889E+00
     -2.142  0.0000E+00  0.8889E+00
     -2.084  0.0000E+00  0.8889E+00
     -2.025  0.0000E+00  0.8889E+00
     -1.967  0.0000E+00  0.8889E+00
     -1.909  0.0000E+00  0.8889E+00
     -1.851  0.0000E+00  0.8889E+00
     -1.792  0.0000E+00  0.8889E+00
     -1.734  0.0000E+00  0.8889E+00
     -1.676  0.0000E+00  0.8889E+00
     -1.618  0.0000E+00  0.8889E+00
     -1.559  0.0000E+00  0.8889E+00
     -1.501  0.0000E+00  0.8889E+00
     -1.443  0.0000E+00  0.8889E+00
     -1.385  0.0000E+00  0.8889E+00
     -1.327  0.0000E+00  0.8889E+00
     -1.268  0.1906E-14  0.8889E+00
     -1.210  0.1298E-11  0.8889E+00
     -1.152  0.4340E-09  0.8889E+00
     -1.094  0.7461E-07  0.8889E+00
     -1.035  0.6610E-05  0.8889E+00
     -0.977  0.3027E-03  0.8889E+00
     -0.919  0.7188E-02  0.8893E+00
     -0.861  0.8889E-01  0.8945E+00
     -0.802  0.5745E+00  0.9280E+00
     -0.744  0.1948E+01  0.1041E+01
     -0.686  0.3473E+01  0.1244E+01
     -0.628  0.3262E+01  0.1434E+01
     -0.569  0.1613E+01  0.1528E+01
     -0.511  0.4195E+00  0.1552E+01
     -0.453  0.5718E-01  0.1555E+01
     -0.395  0.4070E-02  0.1556E+01
     -0.336  0.1507E-03  0.1556E+01
     -0.278  0.2894E-05  0.1556E+01
     -0.220  0.2869E-07  0.1556E+01
     -0.162  0.1465E-09  0.1556E+01
     -0.104  0.3851E-12  0.1556E+01
     -0.045  0.0000E+00  0.1556E+01
      0.013  0.0000E+00  0.1556E+01
      0.071  0.0000E+00  0.1556E+01
      0.129  0.0000E+00  0.1556E+01
      0.188  0.0000E+00  0.1556E+01
      0.246  0.0000E+00  0.1556E+01
      0.304  0.0000E+00  0.1556E+01
      0.362  0.0000E+00  0.1556E+01
      0.421  0.0000E+00  0.1556E+01
      0.479  0.0000E+00  0.1556E+01
      0.537  0.0000E+00  0.1556E+01
      0.595  0.0000E+00  0.1556E+01
      0.654  0.0000E+00  0.1556E+01
      0.712  0.0000E+00  0.1556E+01
      0.770  0.0000E+00  0.1556E+01
      0.828  0.0000E+00  0.1556E+01
      0.887  0.0000E+00  0.1556E+01
      0.945  0.0000E+00  0.1556E+01
      1.003  0.0000E+00  0.1556E+01
      1.061  0.0000E+00  0.1556E+01
      1.119  0.0000E+00  0.1556E+01
      1.178  0.1906E-14  0.1556E+01
      1.236  0.1090E-11  0.1556E+01
      1.294  0.3295E-09  0.1556E+01
      1.352  0.5122E-07  0.1556E+01
      1.411  0.4105E-05  0.1556E+01
      1.469  0.1701E-03  0.1556E+01
      1.527  0.3659E-02  0.1556E+01
      1.585  0.4099E-01  0.1558E+01
      1.644  0.2402E+00  0.1572E+01
      1.702  0.7386E+00  0.1615E+01
      1.760  0.1195E+01  0.1685E+01
      1.818  0.1018E+01  0.1744E+01
      1.877  0.4571E+00  0.1771E+01
      1.935  0.1129E+00  0.1777E+01
      1.993  0.8201E-01  0.1782E+01
      2.051  0.4794E+00  0.1810E+01
      2.110  0.1748E+01  0.1912E+01
      2.168  0.3356E+01  0.2107E+01
      2.226  0.3395E+01  0.2305E+01
      2.284  0.1809E+01  0.2410E+01
      2.342  0.5067E+00  0.2440E+01
      2.401  0.7443E-01  0.2444E+01
      2.459  0.5713E-02  0.2444E+01
      2.517  0.2283E-03  0.2444E+01
      2.575  0.4729E-05  0.2444E+01
      2.634  0.5062E-07  0.2444E+01
      2.692  0.2792E-09  0.2444E+01
      2.750  0.7918E-12  0.2444E+01
      2.808  0.1271E-14  0.2444E+01
      2.867  0.0000E+00  0.2444E+01
      2.925  0.6736E-13  0.2444E+01
      2.983  0.3075E-10  0.2444E+01
      3.041  0.7224E-08  0.2444E+01
      3.100  0.8735E-06  0.2444E+01
      3.158  0.5451E-04  0.2444E+01
      3.216  0.1762E-02  0.2445E+01
      3.274  0.2958E-01  0.2446E+01
      3.333  0.2592E+00  0.2461E+01
      3.391  0.1189E+01  0.2531E+01
      3.449  0.2867E+01  0.2698E+01
      3.507  0.3638E+01  0.2909E+01
      3.565  0.2432E+01  0.3051E+01
      3.624  0.8557E+00  0.3101E+01
      3.682  0.1580E+00  0.3110E+01
      3.740  0.1527E-01  0.3111E+01
      3.798  0.7691E-03  0.3111E+01
      3.857  0.2011E-04  0.3111E+01
      3.915  0.2721E-06  0.3111E+01
      3.973  0.1898E-08  0.3111E+01
      4.031  0.6812E-11  0.3111E+01
      4.090  0.1271E-13  0.3111E+01
      4.148  0.0000E+00  0.3111E+01
      4.206  0.0000E+00  0.3111E+01
      4.264  0.0000E+00  0.3111E+01
      4.323  0.3813E-14  0.3111E+01
      4.381  0.2327E-11  0.3111E+01
      4.439  0.6983E-09  0.3111E+01
      4.497  0.1078E-06  0.3111E+01
      4.556  0.8576E-05  0.3111E+01
      4.614  0.3529E-03  0.3111E+01
      4.672  0.7536E-02  0.3112E+01
      4.730  0.8385E-01  0.3116E+01
      4.788  0.4879E+00  0.3145E+01
      4.847  0.1490E+01  0.3232E+01
      4.905  0.2394E+01  0.3371E+01
      4.963  0.2026E+01  0.3489E+01
      5.021  0.9028E+00  0.3542E+01
      5.080  0.2114E+00  0.3554E+01
      5.138  0.2594E-01  0.3555E+01
      5.196  0.1661E-02  0.3556E+01
      5.254  0.5531E-04  0.3556E+01
      5.313  0.9539E-06  0.3556E+01
      5.371  0.8494E-08  0.3556E+01
      5.429  0.3894E-10  0.3556E+01
      5.487  0.9151E-13  0.3556E+01
      5.546  0.0000E+00  0.3556E+01
      5.604  0.0000E+00  0.3556E+01
      5.662  0.0000E+00  0.3556E+01
      5.720  0.0000E+00  0.3556E+01
      5.779  0.0000E+00  0.3556E+01
      5.837  0.0000E+00  0.3556E+01
      5.895  0.0000E+00  0.3556E+01
      5.953  0.0000E+00  0.3556E+01
      6.011  0.0000E+00  0.3556E+01
      6.070  0.0000E+00  0.3556E+01
      6.128  0.0000E+00  0.3556E+01
      6.186  0.0000E+00  0.3556E+01
      6.244  0.0000E+00  0.3556E+01
      6.303  0.0000E+00  0.3556E+01
      6.361  0.0000E+00  0.3556E+01
      6.419  0.0000E+00  0.3556E+01
      6.477  0.0000E+00  0.3556E+01
      6.536  0.0000E+00  0.3556E+01
      6.594  0.6355E-15  0.3556E+01
      6.652  0.4264E-12  0.3556E+01
      6.710  0.1607E-09  0.3556E+01
      6.769  0.3113E-07  0.3556E+01
      6.827  0.3105E-05  0.3556E+01
      6.885  0.1600E-03  0.3556E+01
      6.943  0.4274E-02  0.3556E+01
      7.002  0.5940E-01  0.3559E+01
      7.060  0.4311E+00  0.3584E+01
      7.118  0.1641E+01  0.3680E+01
      7.176  0.3282E+01  0.3871E+01
      7.234  0.3458E+01  0.4072E+01
      7.293  0.1919E+01  0.4184E+01
      7.351  0.5615E+00  0.4217E+01
      7.409  0.1063E+00  0.4223E+01
      7.467  0.1544E+00  0.4232E+01
      7.526  0.5561E+00  0.4264E+01
      7.584  0.1101E+01  0.4329E+01
      7.642  0.1148E+01  0.4395E+01
      7.700  0.6303E+00  0.4432E+01
      7.759  0.1821E+00  0.4443E+01
      7.817  0.2758E-01  0.4444E+01
      7.875  0.2184E-02  0.4444E+01
      7.933  0.9000E-04  0.4444E+01
      7.992  0.1924E-05  0.4444E+01
      8.050  0.2125E-07  0.4444E+01
      8.108  0.1210E-09  0.4444E+01
      8.166  0.3533E-12  0.4444E+01
      8.224  0.8473E-15  0.4444E+01
      8.283  0.0000E+00  0.4444E+01
      8.341  0.0000E+00  0.4444E+01
      8.399  0.0000E+00  0.4444E+01
      8.457  0.0000E+00  0.4444E+01
      8.516  0.0000E+00  0.4444E+01
      8.574  0.2627E-13  0.4444E+01
      8.632  0.1266E-10  0.4444E+01
      8.690  0.3143E-08  0.4444E+01
      8.749  0.4015E-06  0.4444E+01
      8.807  0.2646E-04  0.4444E+01
      8.865  0.9029E-03  0.4444E+01
      8.923  0.1601E-01  0.4445E+01
      8.982  0.1480E+00  0.4454E+01
      9.040  0.7162E+00  0.4496E+01
      9.098  0.1821E+01  0.4602E+01
      9.156  0.2437E+01  0.4744E+01
      9.215  0.1718E+01  0.4844E+01
      9.273  0.6374E+00  0.4881E+01
      9.331  0.1242E+00  0.4888E+01
      9.389  0.1266E-01  0.4889E+01
      9.447  0.6732E-03  0.4889E+01
      9.506  0.1859E-04  0.4889E+01
      9.564  0.2656E-06  0.4889E+01
      9.622  0.2604E-08  0.4889E+01
      9.680  0.1059E-06  0.4889E+01
      9.739  0.8937E-05  0.4889E+01
      9.797  0.3900E-03  0.4889E+01
      9.855  0.8831E-02  0.4889E+01
      9.913  0.1041E+00  0.4895E+01
      9.972  0.6419E+00  0.4933E+01
     10.030  0.2076E+01  0.5054E+01
     10.088  0.3533E+01  0.5260E+01
     10.146  0.3166E+01  0.5444E+01
     10.205  0.1494E+01  0.5531E+01
     10.263  0.3707E+00  0.5553E+01
     10.321  0.4819E-01  0.5555E+01
     10.379  0.3271E-02  0.5556E+01
     10.438  0.1155E-03  0.5556E+01
     10.496  0.2113E-05  0.5556E+01
     10.554  0.1996E-07  0.5556E+01
     10.612  0.9709E-10  0.5556E+01
     10.670  0.2427E-12  0.5556E+01
     10.729  0.0000E+00  0.5556E+01
     10.787  0.0000E+00  0.5556E+01
     10.845  0.0000E+00  0.5556E+01
     10.903  0.0000E+00  0.5556E+01
     10.962  0.0000E+00  0.5556E+01
     11.020  0.0000E+00  0.5556E+01
     11.078  0.0000E+00  0.5556E+01
