The current hostname is p0131.ten.osc.edu
The current working directory is /users/PAA0028/sjtuwjx1994
Switching to the working directory /users/PAA0028/sjtuwjx1994/repos/vasp_tutorials/lessons/lesson_02/kpoint_convergence/2
switching compiler chain
module load intel/19.0.5
module load intelmpi/2019.3
VASP_STD_BIN=/users/PAA0028/sjtuwjx1994/usr/local/vasp/vasp.5.4.1/bin/vasp_std
 running on   40 total cores
 distrk:  each k-point on   40 cores,    1 groups
 distr:  one band on    8 cores,    5 groups
 using from now: INCAR     
 vasp.5.4.1 05Feb16 (build Feb 24 2020 14:33:01) complex                        
  
 POSCAR found type information on POSCAR  Si
 POSCAR found :  1 types and       8 ions
 scaLAPACK will be used
 LDA part: xc-table for Pade appr. of Perdew
 POSCAR, INCAR and KPOINTS ok, starting setup
 FFT: planning ...
 WAVECAR not read
 entering main loop
       N       E                     dE             d eps       ncg     rms          rms(c)
DAV:   1     0.324743032260E+02    0.32474E+02   -0.75751E+03    50   0.563E+02
DAV:   2    -0.409126507185E+02   -0.73387E+02   -0.71223E+02    75   0.107E+02
DAV:   3    -0.433905548427E+02   -0.24779E+01   -0.24721E+01    60   0.199E+01    0.114E+01
DAV:   4    -0.428713154329E+02    0.51924E+00   -0.49927E-01    60   0.350E+00    0.675E+00
DAV:   5    -0.426223642330E+02    0.24895E+00   -0.52510E-01    55   0.297E+00    0.409E-01
DAV:   6    -0.426287689587E+02   -0.64047E-02   -0.23925E-02    60   0.678E-01    0.206E-01
DAV:   7    -0.426308083172E+02   -0.20394E-02   -0.27558E-03    50   0.240E-01    0.121E-01
DAV:   8    -0.426310580271E+02   -0.24971E-03   -0.23779E-04    60   0.795E-02    0.570E-02
DAV:   9    -0.426311093937E+02   -0.51367E-04   -0.65412E-05    40   0.395E-02
   1 F= -.42631109E+02 E0= -.42631109E+02  d E =-.426311E+02
 curvature:   0.00 expect dE= 0.000E+00 dE for cont linesearch  0.000E+00
 trial: gam= 0.00000 g(F)=  0.506E-59 g(S)=  0.166E+00 ort = 0.000E+00 (trialstep = 0.100E+01)
 search vector abs. value=  0.166E+00
 bond charge predicted
       N       E                     dE             d eps       ncg     rms          rms(c)
DAV:   1    -0.426486828013E+02   -0.17625E-01   -0.38765E+00    55   0.783E+00
DAV:   2    -0.426570388628E+02   -0.83561E-02   -0.83560E-02    60   0.125E+00
DAV:   3    -0.426571063115E+02   -0.67449E-04   -0.67448E-04    65   0.145E-01    0.226E+00
DAV:   4    -0.425709010820E+02    0.86205E-01   -0.39026E-02    50   0.719E-01    0.111E+00
DAV:   5    -0.425279673752E+02    0.42934E-01   -0.59860E-02    50   0.899E-01    0.375E-01
DAV:   6    -0.425277098520E+02    0.25752E-03   -0.33203E-03    60   0.252E-01    0.182E-01
DAV:   7    -0.425276290816E+02    0.80770E-04   -0.28800E-04    55   0.641E-02
   2 F= -.42527629E+02 E0= -.42527629E+02  d E =0.103480E+00
 trial-energy change:    0.103480  1 .order    0.096621   -0.166191    0.359433
 step:   0.2997(harm=  0.3162)  dis= 0.00000  next Energy=   -42.655832 (dE=-0.247E-01)
 bond charge predicted
       N       E                     dE             d eps       ncg     rms          rms(c)
DAV:   1    -0.427144684861E+02   -0.18676E+00   -0.19837E+00    55   0.575E+00
DAV:   2    -0.427196635580E+02   -0.51951E-02   -0.51951E-02    60   0.925E-01
DAV:   3    -0.427196897729E+02   -0.26215E-04   -0.26215E-04    60   0.954E-02    0.163E+00
DAV:   4    -0.426764069351E+02    0.43283E-01   -0.19112E-02    50   0.518E-01    0.788E-01
DAV:   5    -0.426552520534E+02    0.21155E-01   -0.28592E-02    50   0.636E-01    0.288E-01
DAV:   6    -0.426551903537E+02    0.61700E-04   -0.16498E-03    65   0.182E-01    0.118E-01
DAV:   7    -0.426551174048E+02    0.72949E-04   -0.81699E-05    40   0.362E-02
   3 F= -.42655117E+02 E0= -.42655117E+02  d E =-.240080E-01
 curvature:  -0.16 expect dE=-0.684E-05 dE for cont linesearch -0.684E-05
 trial: gam= 0.00000 g(F)=  0.515E-59 g(S)=  0.433E-04 ort =-0.268E-02 (trialstep = 0.860E+00)
 search vector abs. value=  0.433E-04
 reached required accuracy - stopping structural energy minimisation
 writing wavefunctions

-----------------------
Resources requested:
nodes=1:ppn=40
mem=190440mb
-----------------------
Resources used:
cput=00:01:15
walltime=00:00:04
mem=0.001GB
vmem=0.000GB
-----------------------
Resource units charged (estimate):
0.004 RUs
-----------------------
