<?xml version="1.0" encoding="ISO-8859-1"?>
<modeling>
 <generator>
  <i name="program" type="string">vasp </i>
  <i name="version" type="string">5.4.1  </i>
  <i name="subversion" type="string">05Feb16 (build Feb 24 2020 14:33:01) complex                          parallel </i>
  <i name="platform" type="string">IFC91_ompi </i>
  <i name="date" type="string">2020 02 27 </i>
  <i name="time" type="string">21:37:55 </i>
 </generator>
 <incar>
  <i type="string" name="SYSTEM"> diamond Si</i>
  <i type="int" name="ISTART">     0</i>
  <i type="string" name="PREC">accurate</i>
  <i type="int" name="NSIM">     4</i>
  <i type="int" name="ICHARG">     2</i>
  <i type="int" name="NELM">    60</i>
  <i type="int" name="NELMDL">     3</i>
  <i type="int" name="NELMIN">     0</i>
  <i type="int" name="IBRION">     2</i>
  <i name="EDIFF">      0.00010000</i>
  <i name="EDIFFG">     -0.01000000</i>
  <i type="int" name="NSW">     9</i>
  <i type="int" name="ISIF">     3</i>
  <i name="ENCUT">    240.00000000</i>
  <i name="POTIM">      1.00000000</i>
  <i type="logical" name="LPLANE"> F  </i>
  <i type="int" name="ISMEAR">     0</i>
  <i name="SIGMA">      0.10000000</i>
  <v type="int" name="KPOINT_BSE">    -1     0     0     0</v>
  <i type="int" name="NELM">    60</i>
 </incar>
 <kpoints>
  <generation param="Monkhorst-Pack">
   <v type="int" name="divisions">       2        2        2 </v>
   <v name="usershift">      0.00000000       0.00000000       0.00000000 </v>
   <v name="genvec1">      0.50000000       0.00000000       0.00000000 </v>
   <v name="genvec2">      0.00000000       0.50000000       0.00000000 </v>
   <v name="genvec3">      0.00000000       0.00000000       0.50000000 </v>
   <v name="shift">      0.50000000       0.50000000       0.50000000 </v>
  </generation>
  <varray name="kpointlist" >
   <v>       0.25000000       0.25000000       0.25000000 </v>
  </varray>
  <varray name="weights" >
   <v>       1.00000000 </v>
  </varray>
 </kpoints>
 <parameters>
  <separator name="general" >
   <i type="string" name="SYSTEM">diamond Si</i>
   <i type="logical" name="LCOMPAT"> F  </i>
  </separator>
  <separator name="electronic" >
   <i type="string" name="PREC">accura</i>
   <i name="ENMAX">    240.00000000</i>
   <i name="ENAUG">    322.06900000</i>
   <i name="EDIFF">      0.00010000</i>
   <i type="int" name="IALGO">    38</i>
   <i type="int" name="IWAVPR">    11</i>
   <i type="int" name="NBANDS">    25</i>
   <i name="NELECT">     32.00000000</i>
   <i type="int" name="TURBO">     0</i>
   <i type="int" name="IRESTART">     0</i>
   <i type="int" name="NREBOOT">     0</i>
   <i type="int" name="NMIN">     0</i>
   <i name="EREF">      0.00000000</i>
   <separator name="electronic smearing" >
    <i type="int" name="ISMEAR">     0</i>
    <i name="SIGMA">      0.10000000</i>
    <i name="KSPACING">      0.50000000</i>
    <i type="logical" name="KGAMMA"> T  </i>
   </separator>
   <separator name="electronic projectors" >
    <i type="logical" name="LREAL"> F  </i>
    <v name="ROPT">      0.00000000</v>
    <i type="int" name="LMAXPAW">  -100</i>
    <i type="int" name="LMAXMIX">     2</i>
    <i type="logical" name="NLSPLINE"> F  </i>
   </separator>
   <separator name="electronic startup" >
    <i type="int" name="ISTART">     0</i>
    <i type="int" name="ICHARG">     2</i>
    <i type="int" name="INIWAV">     1</i>
   </separator>
   <separator name="electronic spin" >
    <i type="int" name="ISPIN">     1</i>
    <i type="logical" name="LNONCOLLINEAR"> F  </i>
    <v name="MAGMOM">      1.00000000      1.00000000      1.00000000      1.00000000      1.00000000      1.00000000      1.00000000      1.00000000</v>
    <i name="NUPDOWN">     -1.00000000</i>
    <i type="logical" name="LSORBIT"> F  </i>
    <v name="SAXIS">      0.00000000      0.00000000      1.00000000</v>
    <i type="logical" name="LSPIRAL"> F  </i>
    <v name="QSPIRAL">      0.00000000      0.00000000      0.00000000</v>
    <i type="logical" name="LZEROZ"> F  </i>
   </separator>
   <separator name="electronic exchange-correlation" >
    <i type="logical" name="LASPH"> F  </i>
    <i type="logical" name="LMETAGGA"> F  </i>
   </separator>
   <separator name="electronic convergence" >
    <i type="int" name="NELM">    60</i>
    <i type="int" name="NELMDL">     3</i>
    <i type="int" name="NELMIN">     0</i>
    <i name="ENINI">    240.00000000</i>
    <separator name="electronic convergence detail" >
     <i type="logical" name="LDIAG"> T  </i>
     <i type="logical" name="LSUBROT"> F  </i>
     <i name="WEIMIN">      0.00100000</i>
     <i name="EBREAK">      0.00000100</i>
     <i name="DEPER">      0.30000000</i>
     <i type="int" name="NRMM">     4</i>
     <i name="TIME">      0.40000000</i>
    </separator>
   </separator>
   <separator name="electronic mixer" >
    <i name="AMIX">      0.40000000</i>
    <i name="BMIX">      1.00000000</i>
    <i name="AMIN">      0.10000000</i>
    <i name="AMIX_MAG">      1.60000000</i>
    <i name="BMIX_MAG">      1.00000000</i>
    <separator name="electronic mixer details" >
     <i type="int" name="IMIX">     4</i>
     <i type="logical" name="MIXFIRST"> F  </i>
     <i type="int" name="MAXMIX">   -45</i>
     <i name="WC">    100.00000000</i>
     <i type="int" name="INIMIX">     1</i>
     <i type="int" name="MIXPRE">     1</i>
     <i type="int" name="MREMOVE">     5</i>
    </separator>
   </separator>
   <separator name="electronic dipolcorrection" >
    <i type="logical" name="LDIPOL"> F  </i>
    <i type="logical" name="LMONO"> F  </i>
    <i type="int" name="IDIPOL">     0</i>
    <i name="EPSILON">      1.00000000</i>
    <v name="DIPOL">   -100.00000000   -100.00000000   -100.00000000</v>
    <i name="EFIELD">      0.00000000</i>
   </separator>
  </separator>
  <separator name="grids" >
   <i type="int" name="NGX">    28</i>
   <i type="int" name="NGY">    28</i>
   <i type="int" name="NGZ">    28</i>
   <i type="int" name="NGXF">    56</i>
   <i type="int" name="NGYF">    56</i>
   <i type="int" name="NGZF">    56</i>
   <i type="logical" name="ADDGRID"> F  </i>
  </separator>
  <separator name="ionic" >
   <i type="int" name="NSW">     9</i>
   <i type="int" name="IBRION">     2</i>
   <i type="int" name="ISIF">     3</i>
   <i name="PSTRESS">      0.00000000</i>
   <i name="EDIFFG">     -0.01000000</i>
   <i type="int" name="NFREE">     1</i>
   <i name="POTIM">      1.00000000</i>
   <i name="SMASS">     -3.00000000</i>
   <i name="SCALEE">      1.00000000</i>
  </separator>
  <separator name="ionic md" >
   <i name="TEBEG">      0.00010000</i>
   <i name="TEEND">      0.00010000</i>
   <i type="int" name="NBLOCK">     1</i>
   <i type="int" name="KBLOCK">     9</i>
   <i type="int" name="NPACO">   256</i>
   <i name="APACO">     16.00000000</i>
  </separator>
  <separator name="symmetry" >
   <i type="int" name="ISYM">     2</i>
   <i name="SYMPREC">      0.00001000</i>
  </separator>
  <separator name="dos" >
   <i type="logical" name="LORBIT"> F  </i>
   <v name="RWIGS">     -1.00000000</v>
   <i type="int" name="NEDOS">   301</i>
   <i name="EMIN">     10.00000000</i>
   <i name="EMAX">    -10.00000000</i>
   <i name="EFERMI">      0.00000000</i>
  </separator>
  <separator name="writing" >
   <i type="int" name="NWRITE">     2</i>
   <i type="logical" name="LWAVE"> T  </i>
   <i type="logical" name="LCHARG"> T  </i>
   <i type="logical" name="LPARD"> F  </i>
   <i type="logical" name="LVTOT"> F  </i>
   <i type="logical" name="LVHAR"> F  </i>
   <i type="logical" name="LELF"> F  </i>
   <i type="logical" name="LOPTICS"> F  </i>
   <v name="STM">      0.00000000      0.00000000      0.00000000      0.00000000      0.00000000      0.00000000      0.00000000</v>
  </separator>
  <separator name="performance" >
   <i type="int" name="NPAR">     5</i>
   <i type="int" name="NSIM">     4</i>
   <i type="int" name="NBLK">    -1</i>
   <i type="logical" name="LPLANE"> F  </i>
   <i type="logical" name="LSCALAPACK"> T  </i>
   <i type="logical" name="LSCAAWARE"> F  </i>
   <i type="logical" name="LSCALU"> F  </i>
   <i type="logical" name="LASYNC"> F  </i>
   <i type="logical" name="LORBITALREAL"> F  </i>
  </separator>
  <separator name="miscellaneous" >
   <i type="int" name="IDIOT">     3</i>
   <i type="logical" name="LMUSIC"> F  </i>
   <v name="POMASS">     28.08500000</v>
   <v name="DARWINR">      0.00000000</v>
   <v name="DARWINV">      1.00000000</v>
   <i type="logical" name="LCORR"> T  </i>
  </separator>
  <i type="logical" name="GGA_COMPAT"> T  </i>
  <i type="logical" name="LBERRY"> F  </i>
  <i type="int" name="ICORELEVEL">     0</i>
  <i type="logical" name="LDAU"> F  </i>
  <i type="int" name="I_CONSTRAINED_M">     0</i>
  <separator name="electronic exchange-correlation" >
   <i type="string" name="GGA">--</i>
   <i type="int" name="VOSKOWN">     0</i>
   <i type="logical" name="LHFCALC"> F  </i>
   <i type="string" name="PRECFOCK"></i>
   <i type="logical" name="LSYMGRAD"> F  </i>
   <i type="logical" name="LHFONE"> F  </i>
   <i type="logical" name="LRHFCALC"> F  </i>
   <i type="logical" name="LTHOMAS"> F  </i>
   <i type="logical" name="LMODELHF"> F  </i>
   <i name="ENCUT4O">     -1.00000000</i>
   <i type="int" name="EXXOEP">     0</i>
   <i type="int" name="FOURORBIT">     0</i>
   <i name="AEXX">      0.00000000</i>
   <i name="HFALPHA">      0.00000000</i>
   <i name="MCALPHA">      0.00000000</i>
   <i name="ALDAX">      1.00000000</i>
   <i name="AGGAX">      1.00000000</i>
   <i name="ALDAC">      1.00000000</i>
   <i name="AGGAC">      1.00000000</i>
   <i type="int" name="NKREDX">     1</i>
   <i type="int" name="NKREDY">     1</i>
   <i type="int" name="NKREDZ">     1</i>
   <i type="logical" name="SHIFTRED"> F  </i>
   <i type="logical" name="ODDONLY"> F  </i>
   <i type="logical" name="EVENONLY"> F  </i>
   <i type="int" name="LMAXFOCK">     0</i>
   <i type="int" name="NMAXFOCKAE">     0</i>
   <i type="logical" name="LFOCKAEDFT"> F  </i>
   <i name="HFSCREEN">      0.00000000</i>
   <i name="HFSCREENC">      0.00000000</i>
   <i type="int" name="NBANDSGWLOW">     0</i>
  </separator>
  <separator name="vdW DFT" >
   <i type="logical" name="LUSE_VDW"> F  </i>
   <i name="Zab_VDW">     -0.84910000</i>
   <i name="PARAM1">      0.12340000</i>
   <i name="PARAM2">      1.00000000</i>
   <i name="PARAM3">      0.00000000</i>
  </separator>
  <separator name="model GW" >
   <i type="int" name="MODEL_GW">     0</i>
   <i name="MODEL_EPS0">     12.01436085</i>
   <i name="MODEL_ALPHA">      1.00000000</i>
  </separator>
  <separator name="linear response parameters" >
   <i type="logical" name="LEPSILON"> F  </i>
   <i type="logical" name="LRPA"> F  </i>
   <i type="logical" name="LNABLA"> F  </i>
   <i type="logical" name="LVEL"> F  </i>
   <i type="int" name="KINTER">     0</i>
   <i name="CSHIFT">      0.10000000</i>
   <i name="OMEGAMAX">     -1.00000000</i>
   <i name="DEG_THRESHOLD">      0.00200000</i>
  </separator>
  <separator name="orbital magnetization" >
   <i type="logical" name="NUCIND"> F  </i>
   <v name="MAGPOS">      0.00000000      0.00000000      0.00000000</v>
   <i type="logical" name="LNICSALL"> T  </i>
   <i type="logical" name="ORBITALMAG"> F  </i>
   <i type="logical" name="LMAGBLOCH"> F  </i>
   <i type="logical" name="LCHIMAG"> F  </i>
   <i type="logical" name="LGAUGE"> T  </i>
   <i type="int" name="MAGATOM">     0</i>
   <v name="MAGDIPOL">      0.00000000      0.00000000      0.00000000</v>
   <v name="AVECCONST">      0.00000000      0.00000000      0.00000000</v>
  </separator>
  <separator name="response functions" >
   <i type="logical" name="LADDER"> F  </i>
   <i type="logical" name="LFXC"> F  </i>
   <i type="logical" name="LHARTREE"> T  </i>
   <i type="int" name="IBSE">     0</i>
   <v type="int" name="KPOINT">    -1     0     0     0</v>
   <i type="logical" name="LTCTE"> F  </i>
   <i type="logical" name="LTETE"> F  </i>
   <i type="logical" name="LTRIPLET"> F  </i>
   <i type="logical" name="LFXCEPS"> F  </i>
   <i type="logical" name="LFXHEG"> F  </i>
   <i type="int" name="NATURALO">     0</i>
   <i type="logical" name="L2ORDER"> F  </i>
   <i type="logical" name="LUSEW"> F  </i>
   <i name="ENCUTGW">     -2.00000000</i>
   <i name="ENCUTGWSOFT">     -2.00000000</i>
   <i name="ENCUTLF">     -1.00000000</i>
   <i type="int" name="LMAXMP2">    -1</i>
   <i name="SCISSOR">      0.00000000</i>
   <i type="int" name="NOMEGA">     0</i>
   <i type="int" name="NOMEGAR">     0</i>
   <i type="int" name="NBANDSGW">    -1</i>
   <i type="int" name="NBANDSO">    -1</i>
   <i type="int" name="NBANDSV">    -1</i>
   <i type="int" name="NELM">    60</i>
   <i type="int" name="NELMHF">     1</i>
   <i type="int" name="DIM">     3</i>
   <i type="int" name="ANTIRES">     0</i>
   <i name="OMEGAMAX">    -30.00000000</i>
   <i name="OMEGAMIN">    -30.00000000</i>
   <i name="OMEGATL">   -200.00000000</i>
   <i type="int" name="OMEGAGRID">     0</i>
   <i name="CSHIFT">     -0.10000000</i>
   <i type="logical" name="SELFENERGY"> F  </i>
   <i type="logical" name="LSPECTRAL"> F  </i>
   <i type="logical" name="LSPECTRALGW"> F  </i>
   <i type="logical" name="LSINGLES"> F  </i>
   <i type="logical" name="LFERMIGW"> F  </i>
   <i type="logical" name="ODDONLYGW"> F  </i>
   <i type="logical" name="EVENONLYGW"> F  </i>
   <i type="int" name="NKREDLFX">     1</i>
   <i type="int" name="NKREDLFY">     1</i>
   <i type="int" name="NKREDLFZ">     1</i>
   <i type="int" name="MAXMEM">  1800</i>
   <i type="int" name="TELESCOPE">     0</i>
   <i type="int" name="TAUPAR">     1</i>
   <i type="int" name="OMEGAPAR">    -1</i>
   <i name="LAMBDA">      1.00000000</i>
  </separator>
  <separator name="External order field" >
   <i name="OFIELD_KAPPA">      0.00000000</i>
   <v name="OFIELD_K">      0.00000000      0.00000000      0.00000000</v>
   <i name="OFIELD_Q6_NEAR">      0.00000000</i>
   <i name="OFIELD_Q6_FAR">      0.00000000</i>
   <i name="OFIELD_A">      0.00000000</i>
  </separator>
 </parameters>
 <atominfo>
  <atoms>       8 </atoms>
  <types>       1 </types>
  <array name="atoms" >
   <dimension dim="1">ion</dimension>
   <field type="string">element</field>
   <field type="int">atomtype</field>
   <set>
    <rc><c>Si</c><c>   1</c></rc>
    <rc><c>Si</c><c>   1</c></rc>
    <rc><c>Si</c><c>   1</c></rc>
    <rc><c>Si</c><c>   1</c></rc>
    <rc><c>Si</c><c>   1</c></rc>
    <rc><c>Si</c><c>   1</c></rc>
    <rc><c>Si</c><c>   1</c></rc>
    <rc><c>Si</c><c>   1</c></rc>
   </set>
  </array>
  <array name="atomtypes" >
   <dimension dim="1">type</dimension>
   <field type="int">atomspertype</field>
   <field type="string">element</field>
   <field>mass</field>
   <field>valence</field>
   <field type="string">pseudopotential</field>
   <set>
    <rc><c>   8</c><c>Si</c><c>     28.08500000</c><c>      4.00000000</c><c>  PAW_PBE Si 05Jan2001                  </c></rc>
   </set>
  </array>
 </atominfo>
 <structure name="initialpos" >
  <crystal>
   <varray name="basis" >
    <v>       5.43100000       0.00000000       0.00000000 </v>
    <v>       0.00000000       5.43100000       0.00000000 </v>
    <v>       0.00000000       0.00000000       5.43100000 </v>
   </varray>
   <i name="volume">    160.19147799 </i>
   <varray name="rec_basis" >
    <v>       0.18412815       0.00000000       0.00000000 </v>
    <v>       0.00000000       0.18412815       0.00000000 </v>
    <v>       0.00000000       0.00000000       0.18412815 </v>
   </varray>
  </crystal>
  <varray name="positions" >
   <v>       0.00000000       0.00000000       0.00000000 </v>
   <v>       0.00000000       0.50000000       0.50000000 </v>
   <v>       0.50000000       0.00000000       0.50000000 </v>
   <v>       0.50000000       0.50000000       0.00000000 </v>
   <v>       0.25000000       0.25000000       0.25000000 </v>
   <v>       0.75000000       0.75000000       0.25000000 </v>
   <v>       0.75000000       0.25000000       0.75000000 </v>
   <v>       0.25000000       0.75000000       0.75000000 </v>
  </varray>
 </structure>
 <calculation>
  <scstep>
   <time name="dav">    0.21    0.21</time>
   <time name="total">    0.21    0.22</time>
   <energy>
    <i name="alphaZ">     13.44915721 </i>
    <i name="ewald">   -914.08579262 </i>
    <i name="hartreedc">    -44.03749844 </i>
    <i name="XCdc">    -74.41614067 </i>
    <i name="pawpsdc">    704.99039692 </i>
    <i name="pawaedc">   -564.24414232 </i>
    <i name="eentropy">     -0.00000002 </i>
    <i name="bandstr">     86.33211054 </i>
    <i name="atom">    824.48621262 </i>
    <i name="e_fr_energy">     32.47430323 </i>
    <i name="e_wo_entrp">     32.47430325 </i>
    <i name="e_0_energy">     32.47430324 </i>
   </energy>
  </scstep>
  <scstep>
   <time name="dav">    0.01    0.01</time>
   <time name="total">    0.01    0.03</time>
   <energy>
    <i name="e_fr_energy">    -40.91265072 </i>
    <i name="e_wo_entrp">    -40.91265072 </i>
    <i name="e_0_energy">    -40.91265072 </i>
   </energy>
  </scstep>
  <scstep>
   <time name="dav">    0.01    0.01</time>
   <time name="total">    0.02    0.02</time>
   <energy>
    <i name="e_fr_energy">    -43.39055484 </i>
    <i name="e_wo_entrp">    -43.39055484 </i>
    <i name="e_0_energy">    -43.39055484 </i>
   </energy>
  </scstep>
  <scstep>
   <time name="dav">    0.01    0.01</time>
   <time name="total">    0.02    0.02</time>
   <energy>
    <i name="e_fr_energy">    -42.87131543 </i>
    <i name="e_wo_entrp">    -42.87131543 </i>
    <i name="e_0_energy">    -42.87131543 </i>
   </energy>
  </scstep>
  <scstep>
   <time name="dav">    0.01    0.01</time>
   <time name="total">    0.02    0.02</time>
   <energy>
    <i name="e_fr_energy">    -42.62236423 </i>
    <i name="e_wo_entrp">    -42.62236423 </i>
    <i name="e_0_energy">    -42.62236423 </i>
   </energy>
  </scstep>
  <scstep>
   <time name="dav">    0.01    0.01</time>
   <time name="total">    0.02    0.02</time>
   <energy>
    <i name="e_fr_energy">    -42.62876896 </i>
    <i name="e_wo_entrp">    -42.62876896 </i>
    <i name="e_0_energy">    -42.62876896 </i>
   </energy>
  </scstep>
  <scstep>
   <time name="dav">    0.01    0.01</time>
   <time name="total">    0.02    0.02</time>
   <energy>
    <i name="e_fr_energy">    -42.63080832 </i>
    <i name="e_wo_entrp">    -42.63080832 </i>
    <i name="e_0_energy">    -42.63080832 </i>
   </energy>
  </scstep>
  <scstep>
   <time name="dav">    0.01    0.01</time>
   <time name="total">    0.02    0.02</time>
   <energy>
    <i name="e_fr_energy">    -42.63105803 </i>
    <i name="e_wo_entrp">    -42.63105803 </i>
    <i name="e_0_energy">    -42.63105803 </i>
   </energy>
  </scstep>
  <scstep>
   <time name="dav">    0.01    0.01</time>
   <time name="total">    0.01    0.02</time>
   <energy>
    <i name="alphaZ">     13.44915721 </i>
    <i name="ewald">   -914.08579262 </i>
    <i name="hartreedc">    -60.73962206 </i>
    <i name="XCdc">    -71.68288043 </i>
    <i name="pawpsdc">   4273.98593116 </i>
    <i name="pawaedc">  -4134.19469272 </i>
    <i name="eentropy">     -0.00000000 </i>
    <i name="bandstr">     26.15057744 </i>
    <i name="atom">    824.48621262 </i>
    <i name="e_fr_energy">    -42.63110939 </i>
    <i name="e_wo_entrp">    -42.63110939 </i>
    <i name="e_0_energy">    -42.63110939 </i>
   </energy>
  </scstep>
  <structure>
   <crystal>
    <varray name="basis" >
     <v>       5.43100000       0.00000000       0.00000000 </v>
     <v>       0.00000000       5.43100000       0.00000000 </v>
     <v>       0.00000000       0.00000000       5.43100000 </v>
    </varray>
    <i name="volume">    160.19147799 </i>
    <varray name="rec_basis" >
     <v>       0.18412815       0.00000000       0.00000000 </v>
     <v>       0.00000000       0.18412815       0.00000000 </v>
     <v>       0.00000000       0.00000000       0.18412815 </v>
    </varray>
   </crystal>
   <varray name="positions" >
    <v>       0.00000000       0.00000000       0.00000000 </v>
    <v>       0.00000000       0.50000000       0.50000000 </v>
    <v>       0.50000000       0.00000000       0.50000000 </v>
    <v>       0.50000000       0.50000000       0.00000000 </v>
    <v>       0.25000000       0.25000000       0.25000000 </v>
    <v>       0.75000000       0.75000000       0.25000000 </v>
    <v>       0.75000000       0.25000000       0.75000000 </v>
    <v>       0.25000000       0.75000000       0.75000000 </v>
   </varray>
  </structure>
  <varray name="forces" >
   <v>       0.00000000      -0.00000000       0.00000000 </v>
   <v>       0.00000000      -0.00000000       0.00000000 </v>
   <v>       0.00000000       0.00000000       0.00000000 </v>
   <v>       0.00000000      -0.00000000       0.00000000 </v>
   <v>      -0.00000000       0.00000000      -0.00000000 </v>
   <v>      -0.00000000      -0.00000000      -0.00000000 </v>
   <v>      -0.00000000       0.00000000      -0.00000000 </v>
   <v>      -0.00000000      -0.00000000      -0.00000000 </v>
  </varray>
  <varray name="stress" >
   <v>      21.43522525      -0.00000000       0.00000000 </v>
   <v>       0.00000000      21.43522525      -0.00000000 </v>
   <v>       0.00000000      -0.00000000      21.43522525 </v>
  </varray>
  <energy>
   <i name="e_fr_energy">    -42.63110939 </i>
   <i name="e_wo_entrp">    -42.63110939 </i>
   <i name="e_0_energy">     -0.00000000 </i>
  </energy>
  <time name="totalsc">    0.53    0.59</time>
 </calculation>
 <calculation>
  <scstep>
   <time name="dav">    0.01    0.01</time>
   <time name="total">    0.01    0.01</time>
   <energy>
    <i name="alphaZ">     12.45793143 </i>
    <i name="ewald">   -891.05377452 </i>
    <i name="hartreedc">    -59.21332465 </i>
    <i name="XCdc">    -73.18522632 </i>
    <i name="pawpsdc">   4279.01472006 </i>
    <i name="pawaedc">  -4139.22319863 </i>
    <i name="eentropy">     -0.00000000 </i>
    <i name="bandstr">      4.06797720 </i>
    <i name="atom">    824.48621262 </i>
    <i name="e_fr_energy">    -42.64868280 </i>
    <i name="e_wo_entrp">    -42.64868280 </i>
    <i name="e_0_energy">    -42.64868280 </i>
   </energy>
  </scstep>
  <scstep>
   <time name="dav">    0.01    0.01</time>
   <time name="total">    0.01    0.01</time>
   <energy>
    <i name="e_fr_energy">    -42.65703886 </i>
    <i name="e_wo_entrp">    -42.65703886 </i>
    <i name="e_0_energy">    -42.65703886 </i>
   </energy>
  </scstep>
  <scstep>
   <time name="dav">    0.01    0.01</time>
   <time name="total">    0.01    0.02</time>
   <energy>
    <i name="e_fr_energy">    -42.65710631 </i>
    <i name="e_wo_entrp">    -42.65710631 </i>
    <i name="e_0_energy">    -42.65710631 </i>
   </energy>
  </scstep>
  <scstep>
   <time name="dav">    0.01    0.01</time>
   <time name="total">    0.02    0.02</time>
   <energy>
    <i name="e_fr_energy">    -42.57090108 </i>
    <i name="e_wo_entrp">    -42.57090108 </i>
    <i name="e_0_energy">    -42.57090108 </i>
   </energy>
  </scstep>
  <scstep>
   <time name="dav">    0.01    0.01</time>
   <time name="total">    0.02    0.02</time>
   <energy>
    <i name="e_fr_energy">    -42.52796738 </i>
    <i name="e_wo_entrp">    -42.52796738 </i>
    <i name="e_0_energy">    -42.52796738 </i>
   </energy>
  </scstep>
  <scstep>
   <time name="dav">    0.01    0.01</time>
   <time name="total">    0.02    0.02</time>
   <energy>
    <i name="e_fr_energy">    -42.52770985 </i>
    <i name="e_wo_entrp">    -42.52770985 </i>
    <i name="e_0_energy">    -42.52770985 </i>
   </energy>
  </scstep>
  <scstep>
   <time name="dav">    0.01    0.01</time>
   <time name="total">    0.01    0.02</time>
   <energy>
    <i name="alphaZ">     12.45793143 </i>
    <i name="ewald">   -891.05377452 </i>
    <i name="hartreedc">    -64.42855754 </i>
    <i name="XCdc">    -73.06471117 </i>
    <i name="pawpsdc">   3752.88961593 </i>
    <i name="pawaedc">  -3612.83832127 </i>
    <i name="eentropy">     -0.00000000 </i>
    <i name="bandstr">      9.02397544 </i>
    <i name="atom">    824.48621262 </i>
    <i name="e_fr_energy">    -42.52762908 </i>
    <i name="e_wo_entrp">    -42.52762908 </i>
    <i name="e_0_energy">    -42.52762908 </i>
   </energy>
  </scstep>
  <structure>
   <crystal>
    <varray name="basis" >
     <v>       5.57138085      -0.00000000       0.00000000 </v>
     <v>       0.00000000       5.57138085      -0.00000000 </v>
     <v>       0.00000000      -0.00000000       5.57138085 </v>
    </varray>
    <i name="volume">    172.93724749 </i>
    <varray name="rec_basis" >
     <v>       0.17948872      -0.00000000      -0.00000000 </v>
     <v>       0.00000000       0.17948872       0.00000000 </v>
     <v>      -0.00000000       0.00000000       0.17948872 </v>
    </varray>
   </crystal>
   <varray name="positions" >
    <v>       0.00000000      -0.00000000       0.00000000 </v>
    <v>       0.00000000       0.50000000       0.50000000 </v>
    <v>       0.50000000       0.00000000       0.50000000 </v>
    <v>       0.50000000       0.50000000       0.00000000 </v>
    <v>       0.25000000       0.25000000       0.25000000 </v>
    <v>       0.75000000       0.75000000       0.25000000 </v>
    <v>       0.75000000       0.25000000       0.75000000 </v>
    <v>       0.25000000       0.75000000       0.75000000 </v>
   </varray>
  </structure>
  <varray name="forces" >
   <v>       0.00000000      -0.00000000       0.00000000 </v>
   <v>       0.00000000       0.00000000      -0.00000000 </v>
   <v>      -0.00000000       0.00000000       0.00000000 </v>
   <v>       0.00000000       0.00000000       0.00000000 </v>
   <v>      -0.00000000      -0.00000000      -0.00000000 </v>
   <v>      -0.00000000       0.00000000      -0.00000000 </v>
   <v>       0.00000000       0.00000000       0.00000000 </v>
   <v>       0.00000000      -0.00000000      -0.00000000 </v>
  </varray>
  <varray name="stress" >
   <v>     -42.94283790       0.00000000       0.00000000 </v>
   <v>      -0.00000000     -42.94283790       0.00000000 </v>
   <v>       0.00000000      -0.00000000     -42.94283790 </v>
  </varray>
  <energy>
   <i name="e_fr_energy">    -42.52762908 </i>
   <i name="e_wo_entrp">    -42.52762908 </i>
   <i name="e_0_energy">     -0.00000000 </i>
  </energy>
  <time name="totalsc">    0.12    0.16</time>
 </calculation>
 <calculation>
  <scstep>
   <time name="dav">    0.01    0.01</time>
   <time name="total">    0.01    0.01</time>
   <energy>
    <i name="alphaZ">     13.14133542 </i>
    <i name="ewald">   -907.05809232 </i>
    <i name="hartreedc">    -65.60250281 </i>
    <i name="XCdc">    -72.03576886 </i>
    <i name="pawpsdc">   3777.76690770 </i>
    <i name="pawaedc">  -3637.72035017 </i>
    <i name="eentropy">     -0.00000000 </i>
    <i name="bandstr">     24.30778994 </i>
    <i name="atom">    824.48621262 </i>
    <i name="e_fr_energy">    -42.71446849 </i>
    <i name="e_wo_entrp">    -42.71446849 </i>
    <i name="e_0_energy">    -42.71446849 </i>
   </energy>
  </scstep>
  <scstep>
   <time name="dav">    0.01    0.01</time>
   <time name="total">    0.01    0.01</time>
   <energy>
    <i name="e_fr_energy">    -42.71966356 </i>
    <i name="e_wo_entrp">    -42.71966356 </i>
    <i name="e_0_energy">    -42.71966356 </i>
   </energy>
  </scstep>
  <scstep>
   <time name="dav">    0.01    0.01</time>
   <time name="total">    0.01    0.02</time>
   <energy>
    <i name="e_fr_energy">    -42.71968977 </i>
    <i name="e_wo_entrp">    -42.71968977 </i>
    <i name="e_0_energy">    -42.71968977 </i>
   </energy>
  </scstep>
  <scstep>
   <time name="dav">    0.01    0.01</time>
   <time name="total">    0.02    0.02</time>
   <energy>
    <i name="e_fr_energy">    -42.67640694 </i>
    <i name="e_wo_entrp">    -42.67640694 </i>
    <i name="e_0_energy">    -42.67640694 </i>
   </energy>
  </scstep>
  <scstep>
   <time name="dav">    0.01    0.01</time>
   <time name="total">    0.02    0.02</time>
   <energy>
    <i name="e_fr_energy">    -42.65525205 </i>
    <i name="e_wo_entrp">    -42.65525205 </i>
    <i name="e_0_energy">    -42.65525205 </i>
   </energy>
  </scstep>
  <scstep>
   <time name="dav">    0.01    0.01</time>
   <time name="total">    0.02    0.02</time>
   <energy>
    <i name="e_fr_energy">    -42.65519035 </i>
    <i name="e_wo_entrp">    -42.65519035 </i>
    <i name="e_0_energy">    -42.65519035 </i>
   </energy>
  </scstep>
  <scstep>
   <time name="dav">    0.01    0.01</time>
   <time name="total">    0.01    0.02</time>
   <energy>
    <i name="alphaZ">     13.14133542 </i>
    <i name="ewald">   -907.05809232 </i>
    <i name="hartreedc">    -61.84374821 </i>
    <i name="XCdc">    -72.10279777 </i>
    <i name="pawpsdc">   4129.40446184 </i>
    <i name="pawaedc">  -3989.53359865 </i>
    <i name="eentropy">     -0.00000000 </i>
    <i name="bandstr">     20.85110967 </i>
    <i name="atom">    824.48621262 </i>
    <i name="e_fr_energy">    -42.65511740 </i>
    <i name="e_wo_entrp">    -42.65511740 </i>
    <i name="e_0_energy">    -42.65511740 </i>
   </energy>
  </scstep>
  <structure>
   <crystal>
    <varray name="basis" >
     <v>       5.47307828      -0.00000000       0.00000000 </v>
     <v>       0.00000000       5.47307828      -0.00000000 </v>
     <v>       0.00000000      -0.00000000       5.47307828 </v>
    </varray>
    <i name="volume">    163.94379285 </i>
    <varray name="rec_basis" >
     <v>       0.18271253      -0.00000000      -0.00000000 </v>
     <v>       0.00000000       0.18271253       0.00000000 </v>
     <v>      -0.00000000       0.00000000       0.18271253 </v>
    </varray>
   </crystal>
   <varray name="positions" >
    <v>       0.00000000      -0.00000000       0.00000000 </v>
    <v>       0.00000000       0.50000000       0.50000000 </v>
    <v>       0.50000000       0.00000000       0.50000000 </v>
    <v>       0.50000000       0.50000000       0.00000000 </v>
    <v>       0.25000000       0.25000000       0.25000000 </v>
    <v>       0.75000000       0.75000000       0.25000000 </v>
    <v>       0.75000000       0.25000000       0.75000000 </v>
    <v>       0.25000000       0.75000000       0.75000000 </v>
   </varray>
  </structure>
  <varray name="forces" >
   <v>      -0.00000000       0.00000000       0.00000000 </v>
   <v>      -0.00000000      -0.00000000       0.00000000 </v>
   <v>       0.00000000       0.00000000       0.00000000 </v>
   <v>       0.00000000      -0.00000000       0.00000000 </v>
   <v>      -0.00000000       0.00000000      -0.00000000 </v>
   <v>       0.00000000      -0.00000000      -0.00000000 </v>
   <v>       0.00000000       0.00000000      -0.00000000 </v>
   <v>      -0.00000000      -0.00000000      -0.00000000 </v>
  </varray>
  <varray name="stress" >
   <v>      -0.33803560       0.00000000      -0.00000000 </v>
   <v>       0.00000000      -0.33803560       0.00000000 </v>
   <v>       0.00000000      -0.00000000      -0.33803560 </v>
  </varray>
  <energy>
   <i name="e_fr_energy">    -42.65511740 </i>
   <i name="e_wo_entrp">    -42.65511740 </i>
   <i name="e_0_energy">     -0.00000000 </i>
  </energy>
  <time name="totalsc">    0.12    0.16</time>
  <eigenvalues>
   <array>
    <dimension dim="1">band</dimension>
    <dimension dim="2">kpoint</dimension>
    <dimension dim="3">spin</dimension>
    <field>eigene</field>
    <field>occ</field>
    <set>
     <set comment="spin 1">
      <set comment="kpoint 1">
       <r>   -5.3932    1.0000 </r>
       <r>   -3.5166    1.0000 </r>
       <r>   -3.5166    1.0000 </r>
       <r>   -3.5166    1.0000 </r>
       <r>   -0.6916    1.0000 </r>
       <r>   -0.6916    1.0000 </r>
       <r>   -0.6916    1.0000 </r>
       <r>    1.7456    1.0000 </r>
       <r>    2.1688    1.0000 </r>
       <r>    2.1688    1.0000 </r>
       <r>    2.1688    1.0000 </r>
       <r>    3.4706    1.0000 </r>
       <r>    3.4706    1.0000 </r>
       <r>    3.4706    1.0000 </r>
       <r>    4.8898    1.0000 </r>
       <r>    4.8898    1.0000 </r>
       <r>    7.1810    0.0000 </r>
       <r>    7.1810    0.0000 </r>
       <r>    7.1810    0.0000 </r>
       <r>    7.5877    0.0000 </r>
       <r>    9.1245    0.0000 </r>
       <r>    9.1245    0.0000 </r>
       <r>   10.0781    0.0000 </r>
       <r>   10.0781    0.0000 </r>
       <r>   10.0781    0.0000 </r>
      </set>
     </set>
    </set>
   </array>
  </eigenvalues>
  <separator name="orbital magnetization" >
   <v name="MAGDIPOLOUT">      0.00000000      0.00000000      0.00000000</v>
  </separator>
  <dos>
   <i name="efermi">      5.37175058 </i>
   <total>
    <array>
     <dimension dim="1">gridpoints</dimension>
     <dimension dim="2">spin</dimension>
     <field>energy</field>
     <field>total</field>
     <field>integrated</field>
     <set>
      <set comment="spin 1">
       <r>    -6.3932     0.0000     0.0000 </r>
       <r>    -6.3350     0.0000     0.0000 </r>
       <r>    -6.2767     0.0000     0.0000 </r>
       <r>    -6.2185     0.0000     0.0000 </r>
       <r>    -6.1603     0.0000     0.0000 </r>
       <r>    -6.1020     0.0000     0.0000 </r>
       <r>    -6.0438     0.0000     0.0000 </r>
       <r>    -5.9855     0.0000     0.0000 </r>
       <r>    -5.9273     0.0000     0.0000 </r>
       <r>    -5.8691     0.0000     0.0000 </r>
       <r>    -5.8108     0.0000     0.0000 </r>
       <r>    -5.7526     0.0000     0.0000 </r>
       <r>    -5.6944     0.0003     0.0000 </r>
       <r>    -5.6361     0.0098     0.0006 </r>
       <r>    -5.5779     0.1446     0.0090 </r>
       <r>    -5.5196     1.1120     0.0738 </r>
       <r>    -5.4614     4.4827     0.3348 </r>
       <r>    -5.4032     9.4987     0.8880 </r>
       <r>    -5.3449    10.5987     1.5053 </r>
       <r>    -5.2867     6.2291     1.8680 </r>
       <r>    -5.2284     1.9258     1.9802 </r>
       <r>    -5.1702     0.3124     1.9984 </r>
       <r>    -5.1120     0.0265     1.9999 </r>
       <r>    -5.0537     0.0012     2.0000 </r>
       <r>    -4.9955     0.0000     2.0000 </r>
       <r>    -4.9373     0.0000     2.0000 </r>
       <r>    -4.8790     0.0000     2.0000 </r>
       <r>    -4.8208     0.0000     2.0000 </r>
       <r>    -4.7625     0.0000     2.0000 </r>
       <r>    -4.7043     0.0000     2.0000 </r>
       <r>    -4.6461     0.0000     2.0000 </r>
       <r>    -4.5878     0.0000     2.0000 </r>
       <r>    -4.5296     0.0000     2.0000 </r>
       <r>    -4.4714     0.0000     2.0000 </r>
       <r>    -4.4131     0.0000     2.0000 </r>
       <r>    -4.3549     0.0000     2.0000 </r>
       <r>    -4.2966     0.0000     2.0000 </r>
       <r>    -4.2384     0.0000     2.0000 </r>
       <r>    -4.1802     0.0000     2.0000 </r>
       <r>    -4.1219     0.0000     2.0000 </r>
       <r>    -4.0637     0.0000     2.0000 </r>
       <r>    -4.0055     0.0000     2.0000 </r>
       <r>    -3.9472     0.0000     2.0000 </r>
       <r>    -3.8890     0.0000     2.0000 </r>
       <r>    -3.8307     0.0005     2.0000 </r>
       <r>    -3.7725     0.0148     2.0009 </r>
       <r>    -3.7143     0.2521     2.0156 </r>
       <r>    -3.6560     2.2403     2.1460 </r>
       <r>    -3.5978    10.4253     2.7532 </r>
       <r>    -3.5395    25.4860     4.2374 </r>
       <r>    -3.4813    32.7993     6.1476 </r>
       <r>    -3.4231    22.2355     7.4425 </r>
       <r>    -3.3648     7.9329     7.9045 </r>
       <r>    -3.3066     1.4859     7.9911 </r>
       <r>    -3.2484     0.1456     7.9996 </r>
       <r>    -3.1901     0.0074     8.0000 </r>
       <r>    -3.1319     0.0002     8.0000 </r>
       <r>    -3.0736     0.0000     8.0000 </r>
       <r>    -3.0154     0.0000     8.0000 </r>
       <r>    -2.9572     0.0000     8.0000 </r>
       <r>    -2.8989     0.0000     8.0000 </r>
       <r>    -2.8407     0.0000     8.0000 </r>
       <r>    -2.7825     0.0000     8.0000 </r>
       <r>    -2.7242     0.0000     8.0000 </r>
       <r>    -2.6660     0.0000     8.0000 </r>
       <r>    -2.6077     0.0000     8.0000 </r>
       <r>    -2.5495     0.0000     8.0000 </r>
       <r>    -2.4913     0.0000     8.0000 </r>
       <r>    -2.4330     0.0000     8.0000 </r>
       <r>    -2.3748     0.0000     8.0000 </r>
       <r>    -2.3166     0.0000     8.0000 </r>
       <r>    -2.2583     0.0000     8.0000 </r>
       <r>    -2.2001     0.0000     8.0000 </r>
       <r>    -2.1418     0.0000     8.0000 </r>
       <r>    -2.0836     0.0000     8.0000 </r>
       <r>    -2.0254     0.0000     8.0000 </r>
       <r>    -1.9671     0.0000     8.0000 </r>
       <r>    -1.9089     0.0000     8.0000 </r>
       <r>    -1.8507     0.0000     8.0000 </r>
       <r>    -1.7924     0.0000     8.0000 </r>
       <r>    -1.7342     0.0000     8.0000 </r>
       <r>    -1.6759     0.0000     8.0000 </r>
       <r>    -1.6177     0.0000     8.0000 </r>
       <r>    -1.5595     0.0000     8.0000 </r>
       <r>    -1.5012     0.0000     8.0000 </r>
       <r>    -1.4430     0.0000     8.0000 </r>
       <r>    -1.3847     0.0000     8.0000 </r>
       <r>    -1.3265     0.0000     8.0000 </r>
       <r>    -1.2683     0.0000     8.0000 </r>
       <r>    -1.2100     0.0000     8.0000 </r>
       <r>    -1.1518     0.0000     8.0000 </r>
       <r>    -1.0936     0.0000     8.0000 </r>
       <r>    -1.0353     0.0001     8.0000 </r>
       <r>    -0.9771     0.0027     8.0002 </r>
       <r>    -0.9188     0.0647     8.0039 </r>
       <r>    -0.8606     0.8000     8.0505 </r>
       <r>    -0.8024     5.1705     8.3516 </r>
       <r>    -0.7441    17.5291     9.3725 </r>
       <r>    -0.6859    31.2565    11.1928 </r>
       <r>    -0.6277    29.3554    12.9024 </r>
       <r>    -0.5694    14.5190    13.7480 </r>
       <r>    -0.5112     3.7753    13.9678 </r>
       <r>    -0.4529     0.5146    13.9978 </r>
       <r>    -0.3947     0.0366    13.9999 </r>
       <r>    -0.3365     0.0014    14.0000 </r>
       <r>    -0.2782     0.0000    14.0000 </r>
       <r>    -0.2200     0.0000    14.0000 </r>
       <r>    -0.1618     0.0000    14.0000 </r>
       <r>    -0.1035     0.0000    14.0000 </r>
       <r>    -0.0453     0.0000    14.0000 </r>
       <r>     0.0130     0.0000    14.0000 </r>
       <r>     0.0712     0.0000    14.0000 </r>
       <r>     0.1294     0.0000    14.0000 </r>
       <r>     0.1877     0.0000    14.0000 </r>
       <r>     0.2459     0.0000    14.0000 </r>
       <r>     0.3041     0.0000    14.0000 </r>
       <r>     0.3624     0.0000    14.0000 </r>
       <r>     0.4206     0.0000    14.0000 </r>
       <r>     0.4789     0.0000    14.0000 </r>
       <r>     0.5371     0.0000    14.0000 </r>
       <r>     0.5953     0.0000    14.0000 </r>
       <r>     0.6536     0.0000    14.0000 </r>
       <r>     0.7118     0.0000    14.0000 </r>
       <r>     0.7701     0.0000    14.0000 </r>
       <r>     0.8283     0.0000    14.0000 </r>
       <r>     0.8865     0.0000    14.0000 </r>
       <r>     0.9448     0.0000    14.0000 </r>
       <r>     1.0030     0.0000    14.0000 </r>
       <r>     1.0612     0.0000    14.0000 </r>
       <r>     1.1195     0.0000    14.0000 </r>
       <r>     1.1777     0.0000    14.0000 </r>
       <r>     1.2360     0.0000    14.0000 </r>
       <r>     1.2942     0.0000    14.0000 </r>
       <r>     1.3524     0.0000    14.0000 </r>
       <r>     1.4107     0.0000    14.0000 </r>
       <r>     1.4689     0.0015    14.0001 </r>
       <r>     1.5271     0.0329    14.0020 </r>
       <r>     1.5854     0.3689    14.0235 </r>
       <r>     1.6436     2.1618    14.1494 </r>
       <r>     1.7019     6.6474    14.5365 </r>
       <r>     1.7601    10.7545    15.1628 </r>
       <r>     1.8183     9.1649    15.6966 </r>
       <r>     1.8766     4.1142    15.9362 </r>
       <r>     1.9348     1.0161    15.9954 </r>
       <r>     1.9930     0.7380    16.0383 </r>
       <r>     2.0513     4.3142    16.2896 </r>
       <r>     2.1095    15.7293    17.2056 </r>
       <r>     2.1678    30.2083    18.9649 </r>
       <r>     2.2260    30.5549    20.7444 </r>
       <r>     2.2842    16.2772    21.6923 </r>
       <r>     2.3425     4.5599    21.9579 </r>
       <r>     2.4007     0.6699    21.9969 </r>
       <r>     2.4589     0.0514    21.9999 </r>
       <r>     2.5172     0.0021    22.0000 </r>
       <r>     2.5754     0.0000    22.0000 </r>
       <r>     2.6337     0.0000    22.0000 </r>
       <r>     2.6919     0.0000    22.0000 </r>
       <r>     2.7501     0.0000    22.0000 </r>
       <r>     2.8084     0.0000    22.0000 </r>
       <r>     2.8666     0.0000    22.0000 </r>
       <r>     2.9249     0.0000    22.0000 </r>
       <r>     2.9831     0.0000    22.0000 </r>
       <r>     3.0413     0.0000    22.0000 </r>
       <r>     3.0996     0.0000    22.0000 </r>
       <r>     3.1578     0.0005    22.0000 </r>
       <r>     3.2160     0.0159    22.0010 </r>
       <r>     3.2743     0.2662    22.0165 </r>
       <r>     3.3325     2.3327    22.1523 </r>
       <r>     3.3908    10.7036    22.7757 </r>
       <r>     3.4490    25.8024    24.2783 </r>
       <r>     3.5072    32.7455    26.1854 </r>
       <r>     3.5655    21.8908    27.4602 </r>
       <r>     3.6237     7.7012    27.9087 </r>
       <r>     3.6819     1.4223    27.9916 </r>
       <r>     3.7402     0.1374    27.9996 </r>
       <r>     3.7984     0.0069    28.0000 </r>
       <r>     3.8567     0.0002    28.0000 </r>
       <r>     3.9149     0.0000    28.0000 </r>
       <r>     3.9731     0.0000    28.0000 </r>
       <r>     4.0314     0.0000    28.0000 </r>
       <r>     4.0896     0.0000    28.0000 </r>
       <r>     4.1478     0.0000    28.0000 </r>
       <r>     4.2061     0.0000    28.0000 </r>
       <r>     4.2643     0.0000    28.0000 </r>
       <r>     4.3226     0.0000    28.0000 </r>
       <r>     4.3808     0.0000    28.0000 </r>
       <r>     4.4390     0.0000    28.0000 </r>
       <r>     4.4973     0.0000    28.0000 </r>
       <r>     4.5555     0.0001    28.0000 </r>
       <r>     4.6137     0.0032    28.0002 </r>
       <r>     4.6720     0.0678    28.0041 </r>
       <r>     4.7302     0.7546    28.0481 </r>
       <r>     4.7885     4.3912    28.3038 </r>
       <r>     4.8467    13.4097    29.0848 </r>
       <r>     4.9049    21.5454    30.3395 </r>
       <r>     4.9632    18.2345    31.4015 </r>
       <r>     5.0214     8.1256    31.8747 </r>
       <r>     5.0797     1.9029    31.9855 </r>
       <r>     5.1379     0.2335    31.9991 </r>
       <r>     5.1961     0.0150    32.0000 </r>
       <r>     5.2544     0.0005    32.0000 </r>
       <r>     5.3126     0.0000    32.0000 </r>
       <r>     5.3708     0.0000    32.0000 </r>
       <r>     5.4291     0.0000    32.0000 </r>
       <r>     5.4873     0.0000    32.0000 </r>
       <r>     5.5456     0.0000    32.0000 </r>
       <r>     5.6038     0.0000    32.0000 </r>
       <r>     5.6620     0.0000    32.0000 </r>
       <r>     5.7203     0.0000    32.0000 </r>
       <r>     5.7785     0.0000    32.0000 </r>
       <r>     5.8367     0.0000    32.0000 </r>
       <r>     5.8950     0.0000    32.0000 </r>
       <r>     5.9532     0.0000    32.0000 </r>
       <r>     6.0115     0.0000    32.0000 </r>
       <r>     6.0697     0.0000    32.0000 </r>
       <r>     6.1279     0.0000    32.0000 </r>
       <r>     6.1862     0.0000    32.0000 </r>
       <r>     6.2444     0.0000    32.0000 </r>
       <r>     6.3026     0.0000    32.0000 </r>
       <r>     6.3609     0.0000    32.0000 </r>
       <r>     6.4191     0.0000    32.0000 </r>
       <r>     6.4774     0.0000    32.0000 </r>
       <r>     6.5356     0.0000    32.0000 </r>
       <r>     6.5938     0.0000    32.0000 </r>
       <r>     6.6521     0.0000    32.0000 </r>
       <r>     6.7103     0.0000    32.0000 </r>
       <r>     6.7685     0.0000    32.0000 </r>
       <r>     6.8268     0.0000    32.0000 </r>
       <r>     6.8850     0.0014    32.0001 </r>
       <r>     6.9433     0.0385    32.0023 </r>
       <r>     7.0015     0.5346    32.0335 </r>
       <r>     7.0597     3.8803    32.2594 </r>
       <r>     7.1180    14.7652    33.1193 </r>
       <r>     7.1762    29.5389    34.8396 </r>
       <r>     7.2345    31.1212    36.6520 </r>
       <r>     7.2927    17.2701    37.6578 </r>
       <r>     7.3509     5.0536    37.9521 </r>
       <r>     7.4092     0.9565    38.0078 </r>
       <r>     7.4674     1.3900    38.0888 </r>
       <r>     7.5256     5.0048    38.3802 </r>
       <r>     7.5839     9.9047    38.9571 </r>
       <r>     7.6421    10.3283    39.5586 </r>
       <r>     7.7004     5.6725    39.8889 </r>
       <r>     7.7586     1.6385    39.9844 </r>
       <r>     7.8168     0.2482    39.9988 </r>
       <r>     7.8751     0.0197    40.0000 </r>
       <r>     7.9333     0.0008    40.0000 </r>
       <r>     7.9915     0.0000    40.0000 </r>
       <r>     8.0498     0.0000    40.0000 </r>
       <r>     8.1080     0.0000    40.0000 </r>
       <r>     8.1663     0.0000    40.0000 </r>
       <r>     8.2245     0.0000    40.0000 </r>
       <r>     8.2827     0.0000    40.0000 </r>
       <r>     8.3410     0.0000    40.0000 </r>
       <r>     8.3992     0.0000    40.0000 </r>
       <r>     8.4574     0.0000    40.0000 </r>
       <r>     8.5157     0.0000    40.0000 </r>
       <r>     8.5739     0.0000    40.0000 </r>
       <r>     8.6322     0.0000    40.0000 </r>
       <r>     8.6904     0.0000    40.0000 </r>
       <r>     8.7486     0.0000    40.0000 </r>
       <r>     8.8069     0.0002    40.0000 </r>
       <r>     8.8651     0.0081    40.0005 </r>
       <r>     8.9233     0.1440    40.0089 </r>
       <r>     8.9816     1.3317    40.0864 </r>
       <r>     9.0398     6.4460    40.4618 </r>
       <r>     9.0981    16.3878    41.4162 </r>
       <r>     9.1563    21.9311    42.6934 </r>
       <r>     9.2145    15.4606    43.5938 </r>
       <r>     9.2728     5.7364    43.9279 </r>
       <r>     9.3310     1.1176    43.9930 </r>
       <r>     9.3893     0.1140    43.9996 </r>
       <r>     9.4475     0.0061    44.0000 </r>
       <r>     9.5057     0.0002    44.0000 </r>
       <r>     9.5640     0.0000    44.0000 </r>
       <r>     9.6222     0.0000    44.0000 </r>
       <r>     9.6804     0.0000    44.0000 </r>
       <r>     9.7387     0.0001    44.0000 </r>
       <r>     9.7969     0.0035    44.0002 </r>
       <r>     9.8552     0.0795    44.0048 </r>
       <r>     9.9134     0.9372    44.0594 </r>
       <r>     9.9716     5.7775    44.3959 </r>
       <r>    10.0299    18.6874    45.4842 </r>
       <r>    10.0881    31.7961    47.3359 </r>
       <r>    10.1463    28.4961    48.9955 </r>
       <r>    10.2046    13.4482    49.7787 </r>
       <r>    10.2628     3.3360    49.9730 </r>
       <r>    10.3211     0.4337    49.9982 </r>
       <r>    10.3793     0.0294    49.9999 </r>
       <r>    10.4375     0.0010    50.0000 </r>
       <r>    10.4958     0.0000    50.0000 </r>
       <r>    10.5540     0.0000    50.0000 </r>
       <r>    10.6122     0.0000    50.0000 </r>
       <r>    10.6705     0.0000    50.0000 </r>
       <r>    10.7287     0.0000    50.0000 </r>
       <r>    10.7870     0.0000    50.0000 </r>
       <r>    10.8452     0.0000    50.0000 </r>
       <r>    10.9034     0.0000    50.0000 </r>
       <r>    10.9617     0.0000    50.0000 </r>
       <r>    11.0199     0.0000    50.0000 </r>
       <r>    11.0781     0.0000    50.0000 </r>
      </set>
     </set>
    </array>
   </total>
  </dos>
 </calculation>
 <structure name="finalpos" >
  <crystal>
   <varray name="basis" >
    <v>       5.47307828      -0.00000000       0.00000000 </v>
    <v>       0.00000000       5.47307828      -0.00000000 </v>
    <v>       0.00000000      -0.00000000       5.47307828 </v>
   </varray>
   <i name="volume">    163.94379285 </i>
   <varray name="rec_basis" >
    <v>       0.18271253      -0.00000000      -0.00000000 </v>
    <v>       0.00000000       0.18271253       0.00000000 </v>
    <v>      -0.00000000       0.00000000       0.18271253 </v>
   </varray>
  </crystal>
  <varray name="positions" >
   <v>       0.00000000      -0.00000000       0.00000000 </v>
   <v>       0.00000000       0.50000000       0.50000000 </v>
   <v>       0.50000000       0.00000000       0.50000000 </v>
   <v>       0.50000000       0.50000000       0.00000000 </v>
   <v>       0.25000000       0.25000000       0.25000000 </v>
   <v>       0.75000000       0.75000000       0.25000000 </v>
   <v>       0.75000000       0.25000000       0.75000000 </v>
   <v>       0.25000000       0.75000000       0.75000000 </v>
  </varray>
 </structure>
</modeling>
