diamond Si                              
   5.43100000000000     
     1.022397   -0.000000   -0.000000
     0.000000    1.022397    0.000000
     0.000000   -0.000000    1.022397
   Si
     8
Direct
  0.000000  0.000000  0.000000
  0.000000  0.500000  0.500000
  0.500000  0.000000  0.500000
  0.500000  0.500000  0.000000
  0.250000  0.250000  0.250000
  0.750000  0.750000  0.250000
  0.750000  0.250000  0.750000
  0.250000  0.750000  0.750000
 
   56   56   56
 -30.755     -26.178     -13.480      4.5532      24.194      41.790      54.630      61.433      62.391      58.830    
  52.667      45.739      38.918      32.572      26.922      22.061      17.993      14.661      11.977      9.8395    
  8.1520      6.8282      5.7968      5.0019      4.4008      3.9621      3.6634      3.4900      3.4331      3.4900    
  3.6634      3.9621      4.4008      5.0019      5.7968      6.8282      8.1520      9.8395      11.977      14.661    
  17.993      22.061      26.922      32.572      38.918      45.739      52.667      58.830      62.391      61.433    
  54.630      41.790      24.194      4.5532     -13.480     -26.178     -26.178     -21.760     -9.5094      7.8620    
  26.733      43.560      55.722      62.001      62.607      58.856      52.632      45.712      38.909      32.586    
  26.955      22.110      18.052      14.727      12.045      9.9080      8.2193      6.8936      5.8602      5.0633    
  4.4606      4.0206      3.7211      3.5470      3.4900      3.5470      3.7211      4.0206      4.4606      5.0633    
  5.8602      6.8936      8.2193      9.9080      12.045      14.727      18.052      22.110      26.955      32.586    
  38.909      45.712      52.632      58.856      62.607      62.001      55.722      43.560      26.733      7.8620    
 -9.5094     -21.760     -13.480     -9.5094      1.4759      16.982      33.687      48.357      58.631      63.455    
  63.102      58.854      52.492      45.606      38.867      32.615      27.048      22.252      18.228      14.922    
  12.250      10.114      8.4229      7.0920      6.0527      5.2503      4.6428      4.1990      3.8967      3.7211    
  3.6634      3.7211      3.8967      4.1990      4.6428      5.2503      6.0527      7.0920      8.4229      10.114    
  12.250      14.922      18.228      22.252      27.048      32.615      38.867      45.606      52.492      58.854    
  63.102      63.455      58.631      48.357      33.687      16.982      1.4759     -9.5094      4.5532      7.8620    
  16.982      29.746      43.280      54.815      62.376      65.149      63.489      58.617      52.151      45.360    
  38.751      32.632      27.181      22.474      18.513      15.245      12.591      10.462      8.7677      7.4300    
  6.3821      5.5710      4.9557      4.5058      4.1990      4.0206      3.9621      4.0206      4.1990      4.5058    
  4.9557      5.5710      6.3821      7.4300      8.7677      10.462      12.591      15.245      18.513      22.474    
  27.181      32.632      38.751      45.360      52.151      58.617      63.489      65.149      62.376      54.815    
  43.280      29.746      16.982      7.8620      24.194      26.733      33.687      43.280      53.176      61.159    
  65.703      66.272      63.298      57.912      51.492      44.894      38.507      32.599      27.327      22.760    
  18.896      15.690      13.070      10.955      9.2623      7.9186      6.8610      6.0393      5.4141      4.9557    
  4.6428      4.4606      4.4008      4.4606      4.6428      4.9557      5.4141      6.0393      6.8610      7.9186    
  9.2623      10.955      13.070      15.690      18.896      22.760      27.327      32.599      38.507      44.894    
  51.492      57.912      63.298      66.272      65.703      61.159      53.176      43.280      33.687      26.733    
  41.790      43.560      48.357      54.815      61.159      65.741      67.490      66.136      62.168      56.590    
  50.415      44.137      38.082      32.477      27.459      23.087      19.364      16.251      13.688      11.601    
  9.9191      8.5739      7.5084      6.6758      6.0393      5.5710      5.2503      5.0633      5.0019      5.0633    
  5.2503      5.5710      6.0393      6.6758      7.5084      8.5739      9.9191      11.601      13.688      16.251    
  19.364      23.087      27.459      32.477      38.082      44.137      50.415      56.590      62.168      66.136    
  67.490      65.741      61.159      54.815      48.357      43.560      54.630      55.722      58.631      62.376    
  65.703      67.490      67.075      64.405      59.985      54.623      48.865      43.048      37.441      32.236    
  27.549      23.437      19.904      16.925      14.447      12.412      10.755      9.4177      8.3495      7.5084    
  6.8610      6.3821      6.0527      5.8602      5.7968      5.8602      6.0527      6.3821      6.8610      7.5084    
  8.3495      9.4177      10.755      12.412      14.447      16.925      19.904      23.437      27.549      32.236    
  37.441      43.048      48.865      54.623      59.985      64.405      67.075      67.490      65.703      62.376    
  58.631      55.722      61.433      62.001      63.455      65.149      66.272      66.136      64.405      61.175    
  56.907      52.034      46.849      41.622      36.572      31.858      27.581      23.795      20.510      17.710    
  15.357      13.401      11.792      10.478      9.4177      8.5739      7.9186      7.4300      7.0920      6.8936    
  6.8282      6.8936      7.0920      7.4300      7.9186      8.5739      9.4177      10.478      11.792      13.401    
  15.357      17.710      20.510      23.795      27.581      31.858      36.572      41.622      46.849      52.034    
  56.907      61.175      64.405      66.136      66.272      65.149      63.455      62.001      62.391      62.607    
  63.102      63.489      63.298      62.168      59.985      56.907      53.151      48.917      44.429      39.894    
  35.489      31.344      27.549      24.154      21.177      18.610      16.427      14.590      13.059      11.792    
  10.755      9.9191      9.2623      8.7677      8.4229      8.2193      8.1520      8.2193      8.4229      8.7677    
  9.2623      9.9191      10.755      11.792      13.059      14.590      16.427      18.610      21.177      24.154    
  27.549      31.344      35.489      39.894      44.429      48.917      53.151      56.907      59.985      62.168    
  63.298      63.489      63.102      62.607      58.830      58.856      58.854      58.617      57.912      56.590    
  54.623      52.034      48.917      45.418      41.702      37.925      34.226      30.711      27.459      24.518    
  21.910      19.635      17.676      16.005      14.590      13.401      12.412      11.601      10.955      10.462    
  10.114      9.9080      9.8395      9.9080      10.114      10.462      10.955      11.601      12.412      13.401    
  14.590      16.005      17.676      19.635      21.910      24.518      27.459      30.711      34.226      37.925    
  41.702      45.418      48.917      52.034      54.623      56.590      57.912      58.617      58.854      58.856    
  52.667      52.632      52.492      52.151      51.492      50.415      48.865      46.849      44.429      41.702    
  38.784      35.792      32.830      29.986      27.327      24.898      22.721      20.801      19.126      17.676    
  16.427      15.357      14.447      13.688      13.070      12.591      12.250      12.045      11.977      12.045    
  12.250      12.591      13.070      13.688      14.447      15.357      16.427      17.676      19.126      20.801    
  22.721      24.898      27.327      29.986      32.830      35.792      38.784      41.702      44.429      46.849    
  48.865      50.415      51.492      52.151      52.492      52.632      45.739      45.712      45.606      45.360    
  44.894      44.137      43.048      41.622      39.894      37.925      35.792      33.577      31.360      29.209    
  27.181      25.313      23.627      22.126      20.801      19.635      18.610      17.710      16.925      16.251    
  15.690      15.245      14.922      14.727      14.661      14.727      14.922      15.245      15.690      16.251    
  16.925      17.710      18.610      19.635      20.801      22.126      23.627      25.313      27.181      29.209    
  31.360      33.577      35.792      37.925      39.894      41.622      43.048      44.137      44.894      45.360    
  45.606      45.712      38.918      38.909      38.867      38.751      38.507      38.082      37.441      36.572    
  35.489      34.226      32.830      31.360      29.872      28.420      27.048      25.784      24.644      23.627    
  22.721      21.910      21.177      20.510      19.904      19.364      18.896      18.513      18.228      18.052    
  17.993      18.052      18.228      18.513      18.896      19.364      19.904      20.510      21.177      21.910    
  22.721      23.627      24.644      25.784      27.048      28.420      29.872      31.360      32.830      34.226    
  35.489      36.572      37.441      38.082      38.507      38.751      38.867      38.909      32.572      32.586    
  32.615      32.632      32.599      32.477      32.236      31.858      31.344      30.711      29.986      29.209    
  28.420      27.658      26.955      26.329      25.784      25.313      24.898      24.518      24.154      23.795    
  23.437      23.087      22.760      22.474      22.252      22.110      22.061      22.110      22.252      22.474    
  22.760      23.087      23.437      23.795      24.154      24.518      24.898      25.313      25.784      26.329    
  26.955      27.658      28.420      29.209      29.986      30.711      31.344      31.858      32.236      32.477    
  32.599      32.632      32.615      32.586      26.922      26.955      27.048      27.181      27.327      27.459    
  27.549      27.581      27.549      27.459      27.327      27.181      27.048      26.955      26.922      26.955    
  27.048      27.181      27.327      27.459      27.549      27.581      27.549      27.459      27.327      27.181    
  27.048      26.955      26.922      26.955      27.048      27.181      27.327      27.459      27.549      27.581    
  27.549      27.459      27.327      27.181      27.048      26.955      26.922      26.955      27.048      27.181    
  27.327      27.459      27.549      27.581      27.549      27.459      27.327      27.181      27.048      26.955    
  22.061      22.110      22.252      22.474      22.760      23.087      23.437      23.795      24.154      24.518    
  24.898      25.313      25.784      26.329      26.955      27.658      28.420      29.209      29.986      30.711    
  31.344      31.858      32.236      32.477      32.599      32.632      32.615      32.586      32.572      32.586    
  32.615      32.632      32.599      32.477      32.236      31.858      31.344      30.711      29.986      29.209    
  28.420      27.658      26.955      26.329      25.784      25.313      24.898      24.518      24.154      23.795    
  23.437      23.087      22.760      22.474      22.252      22.110      17.993      18.052      18.228      18.513    
  18.896      19.364      19.904      20.510      21.177      21.910      22.721      23.627      24.644      25.784    
  27.048      28.420      29.872      31.360      32.830      34.226      35.489      36.572      37.441      38.082    
  38.507      38.751      38.867      38.909      38.918      38.909      38.867      38.751      38.507      38.082    
  37.441      36.572      35.489      34.226      32.830      31.360      29.872      28.420      27.048      25.784    
  24.644      23.627      22.721      21.910      21.177      20.510      19.904      19.364      18.896      18.513    
  18.228      18.052      14.661      14.727      14.922      15.245      15.690      16.251      16.925      17.710    
  18.610      19.635      20.801      22.126      23.627      25.313      27.181      29.209      31.360      33.577    
  35.792      37.925      39.894      41.622      43.048      44.137      44.894      45.360      45.606      45.712    
  45.739      45.712      45.606      45.360      44.894      44.137      43.048      41.622      39.894      37.925    
  35.792      33.577      31.360      29.209      27.181      25.313      23.627      22.126      20.801      19.635    
  18.610      17.710      16.925      16.251      15.690      15.245      14.922      14.727      11.977      12.045    
  12.250      12.591      13.070      13.688      14.447      15.357      16.427      17.676      19.126      20.801    
  22.721      24.898      27.327      29.986      32.830      35.792      38.784      41.702      44.429      46.849    
  48.865      50.415      51.492      52.151      52.492      52.632      52.667      52.632      52.492      52.151    
  51.492      50.415      48.865      46.849      44.429      41.702      38.784      35.792      32.830      29.986    
  27.327      24.898      22.721      20.801      19.126      17.676      16.427      15.357      14.447      13.688    
  13.070      12.591      12.250      12.045      9.8395      9.9080      10.114      10.462      10.955      11.601    
  12.412      13.401      14.590      16.005      17.676      19.635      21.910      24.518      27.459      30.711    
  34.226      37.925      41.702      45.418      48.917      52.034      54.623      56.590      57.912      58.617    
  58.854      58.856      58.830      58.856      58.854      58.617      57.912      56.590      54.623      52.034    
  48.917      45.418      41.702      37.925      34.226      30.711      27.459      24.518      21.910      19.635    
  17.676      16.005      14.590      13.401      12.412      11.601      10.955      10.462      10.114      9.9080    
  8.1520      8.2193      8.4229      8.7677      9.2623      9.9191      10.755      11.792      13.059      14.590    
  16.427      18.610      21.177      24.154      27.549      31.344      35.489      39.894      44.429      48.917    
  53.151      56.907      59.985      62.168      63.298      63.489      63.102      62.607      62.391      62.607    
  63.102      63.489      63.298      62.168      59.985      56.907      53.151      48.917      44.429      39.894    
  35.489      31.344      27.549      24.154      21.177      18.610      16.427      14.590      13.059      11.792    
  10.755      9.9191      9.2623      8.7677      8.4229      8.2193      6.8282      6.8936      7.0920      7.4300    
  7.9186      8.5739      9.4177      10.478      11.792      13.401      15.357      17.710      20.510      23.795    
  27.581      31.858      36.572      41.622      46.849      52.034      56.907      61.175      64.405      66.136    
  66.272      65.149      63.455      62.001      61.433      62.001      63.455      65.149      66.272      66.136    
  64.405      61.175      56.907      52.034      46.849      41.622      36.572      31.858      27.581      23.795    
  20.510      17.710      15.357      13.401      11.792      10.478      9.4177      8.5739      7.9186      7.4300    
  7.0920      6.8936      5.7968      5.8602      6.0527      6.3821      6.8610      7.5084      8.3495      9.4177    
  10.755      12.412      14.447      16.925      19.904      23.437      27.549      32.236      37.441      43.048    
  48.865      54.623      59.985      64.405      67.075      67.490      65.703      62.376      58.631      55.722    
  54.630      55.722      58.631      62.376      65.703      67.490      67.075      64.405      59.985      54.623    
  48.865      43.048      37.441      32.236      27.549      23.437      19.904      16.925      14.447      12.412    
  10.755      9.4177      8.3495      7.5084      6.8610      6.3821      6.0527      5.8602      5.0019      5.0633    
  5.2503      5.5710      6.0393      6.6758      7.5084      8.5739      9.9191      11.601      13.688      16.251    
  19.364      23.087      27.459      32.477      38.082      44.137      50.415      56.590      62.168      66.136    
  67.490      65.741      61.159      54.815      48.357      43.560      41.790      43.560      48.357      54.815    
  61.159      65.741      67.490      66.136      62.168      56.590      50.415      44.137      38.082      32.477    
  27.459      23.087      19.364      16.251      13.688      11.601      9.9191      8.5739      7.5084      6.6758    
  6.0393      5.5710      5.2503      5.0633      4.4008      4.4606      4.6428      4.9557      5.4141      6.0393    
  6.8610      7.9186      9.2623      10.955      13.070      15.690      18.896      22.760      27.327      32.599    
  38.507      44.894      51.492      57.912      63.298      66.272      65.703      61.159      53.176      43.280    
  33.687      26.733      24.194      26.733      33.687      43.280      53.176      61.159      65.703      66.272    
  63.298      57.912      51.492      44.894      38.507      32.599      27.327      22.760      18.896      15.690    
  13.070      10.955      9.2623      7.9186      6.8610      6.0393      5.4141      4.9557      4.6428      4.4606    
  3.9621      4.0206      4.1990      4.5058      4.9557      5.5710      6.3821      7.4300      8.7677      10.462    
  12.591      15.245      18.513      22.474      27.181      32.632      38.751      45.360      52.151      58.617    
  63.489      65.149      62.376      54.815      43.280      29.746      16.982      7.8620      4.5532      7.8620    
  16.982      29.746      43.280      54.815      62.376      65.149      63.489      58.617      52.151      45.360    
  38.751      32.632      27.181      22.474      18.513      15.245      12.591      10.462      8.7677      7.4300    
  6.3821      5.5710      4.9557      4.5058      4.1990      4.0206      3.6634      3.7211      3.8967      4.1990    
  4.6428      5.2503      6.0527      7.0920      8.4229      10.114      12.250      14.922      18.228      22.252    
  27.048      32.615      38.867      45.606      52.492      58.854      63.102      63.455      58.631      48.357    
  33.687      16.982      1.4759     -9.5094     -13.480     -9.5094      1.4759      16.982      33.687      48.357    
  58.631      63.455      63.102      58.854      52.492      45.606      38.867      32.615      27.048      22.252    
  18.228      14.922      12.250      10.114      8.4229      7.0920      6.0527      5.2503      4.6428      4.1990    
  3.8967      3.7211      3.4900      3.5470      3.7211      4.0206      4.4606      5.0633      5.8602      6.8936    
  8.2193      9.9080      12.045      14.727      18.052      22.110      26.955      32.586      38.909      45.712    
  52.632      58.856      62.607      62.001      55.722      43.560      26.733      7.8620     -9.5094     -21.760    
 -26.178     -21.760     -9.5094      7.8620      26.733      43.560      55.722      62.001      62.607      58.856    
  52.632      45.712      38.909      32.586      26.955      22.110      18.052      14.727      12.045      9.9080    
  8.2193      6.8936      5.8602      5.0633      4.4606      4.0206      3.7211      3.5470      3.4331      3.4900    
  3.6634      3.9621      4.4008      5.0019      5.7968      6.8282      8.1520      9.8395      11.977      14.661    
  17.993      22.061      26.922      32.572      38.918      45.739      52.667      58.830      62.391      61.433    
  54.630      41.790      24.194      4.5532     -13.480     -26.178     -30.755     -26.178     -13.480      4.5532    
  24.194      41.790      54.630      61.433      62.391      58.830      52.667      45.739      38.918      32.572    
  26.922      22.061      17.993      14.661      11.977      9.8395      8.1520      6.8282      5.7968      5.0019    
  4.4008      3.9621      3.6634      3.4900      3.4900      3.5470      3.7211      4.0206      4.4606      5.0633    
  5.8602      6.8936      8.2193      9.9080      12.045      14.727      18.052      22.110      26.955      32.586    
  38.909      45.712      52.632      58.856      62.607      62.001      55.722      43.560      26.733      7.8620    
 -9.5094     -21.760     -26.178     -21.760     -9.5094      7.8620      26.733      43.560      55.722      62.001    
  62.607      58.856      52.632      45.712      38.909      32.586      26.955      22.110      18.052      14.727    
  12.045      9.9080      8.2193      6.8936      5.8602      5.0633      4.4606      4.0206      3.7211      3.5470    
  3.6634      3.7211      3.8967      4.1990      4.6428      5.2503      6.0527      7.0920      8.4229      10.114    
  12.250      14.922      18.228      22.252      27.048      32.615      38.867      45.606      52.492      58.854    
  63.102      63.455      58.631      48.357      33.687      16.982      1.4759     -9.5094     -13.480     -9.5094    
  1.4759      16.982      33.687      48.357      58.631      63.455      63.102      58.854      52.492      45.606    
  38.867      32.615      27.048      22.252      18.228      14.922      12.250      10.114      8.4229      7.0920    
  6.0527      5.2503      4.6428      4.1990      3.8967      3.7211      3.9621      4.0206      4.1990      4.5058    
  4.9557      5.5710      6.3821      7.4300      8.7677      10.462      12.591      15.245      18.513      22.474    
  27.181      32.632      38.751      45.360      52.151      58.617      63.489      65.149      62.376      54.815    
  43.280      29.746      16.982      7.8620      4.5532      7.8620      16.982      29.746      43.280      54.815    
  62.376      65.149      63.489      58.617      52.151      45.360      38.751      32.632      27.181      22.474    
  18.513      15.245      12.591      10.462      8.7677      7.4300      6.3821      5.5710      4.9557      4.5058    
  4.1990      4.0206      4.4008      4.4606      4.6428      4.9557      5.4141      6.0393      6.8610      7.9186    
  9.2623      10.955      13.070      15.690      18.896      22.760      27.327      32.599      38.507      44.894    
  51.492      57.912      63.298      66.272      65.703      61.159      53.176      43.280      33.687      26.733    
  24.194      26.733      33.687      43.280      53.176      61.159      65.703      66.272      63.298      57.912    
  51.492      44.894      38.507      32.599      27.327      22.760      18.896      15.690      13.070      10.955    
  9.2623      7.9186      6.8610      6.0393      5.4141      4.9557      4.6428      4.4606      5.0019      5.0633    
  5.2503      5.5710      6.0393      6.6758      7.5084      8.5739      9.9191      11.601      13.688      16.251    
  19.364      23.087      27.459      32.477      38.082      44.137      50.415      56.590      62.168      66.136    
  67.490      65.741      61.159      54.815      48.357      43.560      41.790      43.560      48.357      54.815    
  61.159      65.741      67.490      66.136      62.168      56.590      50.415      44.137      38.082      32.477    
  27.459      23.087      19.364      16.251      13.688      11.601      9.9191      8.5739      7.5084      6.6758    
  6.0393      5.5710      5.2503      5.0633      5.7968      5.8602      6.0527      6.3821      6.8610      7.5084    
  8.3495      9.4177      10.755      12.412      14.447      16.925      19.904      23.437      27.549      32.236    
  37.441      43.048      48.865      54.623      59.985      64.405      67.075      67.490      65.703      62.376    
  58.631      55.722      54.630      55.722      58.631      62.376      65.703      67.490      67.075      64.405    
  59.985      54.623      48.865      43.048      37.441      32.236      27.549      23.437      19.904      16.925    
  14.447      12.412      10.755      9.4177      8.3495      7.5084      6.8610      6.3821      6.0527      5.8602    
  6.8282      6.8936      7.0920      7.4300      7.9186      8.5739      9.4177      10.478      11.792      13.401    
  15.357      17.710      20.510      23.795      27.581      31.858      36.572      41.622      46.849      52.034    
  56.907      61.175      64.405      66.136      66.272      65.149      63.455      62.001      61.433      62.001    
  63.455      65.149      66.272      66.136      64.405      61.175      56.907      52.034      46.849      41.622    
  36.572      31.858      27.581      23.795      20.510      17.710      15.357      13.401      11.792      10.478    
  9.4177      8.5739      7.9186      7.4300      7.0920      6.8936      8.1520      8.2193      8.4229      8.7677    
  9.2623      9.9191      10.755      11.792      13.059      14.590      16.427      18.610      21.177      24.154    
  27.549      31.344      35.489      39.894      44.429      48.917      53.151      56.907      59.985      62.168    
  63.298      63.489      63.102      62.607      62.391      62.607      63.102      63.489      63.298      62.168    
  59.985      56.907      53.151      48.917      44.429      39.894      35.489      31.344      27.549      24.154    
  21.177      18.610      16.427      14.590      13.059      11.792      10.755      9.9191      9.2623      8.7677    
  8.4229      8.2193      9.8395      9.9080      10.114      10.462      10.955      11.601      12.412      13.401    
  14.590      16.005      17.676      19.635      21.910      24.518      27.459      30.711      34.226      37.925    
  41.702      45.418      48.917      52.034      54.623      56.590      57.912      58.617      58.854      58.856    
  58.830      58.856      58.854      58.617      57.912      56.590      54.623      52.034      48.917      45.418    
  41.702      37.925      34.226      30.711      27.459      24.518      21.910      19.635      17.676      16.005    
  14.590      13.401      12.412      11.601      10.955      10.462      10.114      9.9080      11.977      12.045    
  12.250      12.591      13.070      13.688      14.447      15.357      16.427      17.676      19.126      20.801    
  22.721      24.898      27.327      29.986      32.830      35.792      38.784      41.702      44.429      46.849    
  48.865      50.415      51.492      52.151      52.492      52.632      52.667      52.632      52.492      52.151    
  51.492      50.415      48.865      46.849      44.429      41.702      38.784      35.792      32.830      29.986    
  27.327      24.898      22.721      20.801      19.126      17.676      16.427      15.357      14.447      13.688    
  13.070      12.591      12.250      12.045      14.661      14.727      14.922      15.245      15.690      16.251    
  16.925      17.710      18.610      19.635      20.801      22.126      23.627      25.313      27.181      29.209    
  31.360      33.577      35.792      37.925      39.894      41.622      43.048      44.137      44.894      45.360    
  45.606      45.712      45.739      45.712      45.606      45.360      44.894      44.137      43.048      41.622    
  39.894      37.925      35.792      33.577      31.360      29.209      27.181      25.313      23.627      22.126    
  20.801      19.635      18.610      17.710      16.925      16.251      15.690      15.245      14.922      14.727    
  17.993      18.052      18.228      18.513      18.896      19.364      19.904      20.510      21.177      21.910    
  22.721      23.627      24.644      25.784      27.048      28.420      29.872      31.360      32.830      34.226    
  35.489      36.572      37.441      38.082      38.507      38.751      38.867      38.909      38.918      38.909    
  38.867      38.751      38.507      38.082      37.441      36.572      35.489      34.226      32.830      31.360    
  29.872      28.420      27.048      25.784      24.644      23.627      22.721      21.910      21.177      20.510    
  19.904      19.364      18.896      18.513      18.228      18.052      22.061      22.110      22.252      22.474    
  22.760      23.087      23.437      23.795      24.154      24.518      24.898      25.313      25.784      26.329    
  26.955      27.658      28.420      29.209      29.986      30.711      31.344      31.858      32.236      32.477    
  32.599      32.632      32.615      32.586      32.572      32.586      32.615      32.632      32.599      32.477    
  32.236      31.858      31.344      30.711      29.986      29.209      28.420      27.658      26.955      26.329    
  25.784      25.313      24.898      24.518      24.154      23.795      23.437      23.087      22.760      22.474    
  22.252      22.110      26.922      26.955      27.048      27.181      27.327      27.459      27.549      27.581    
  27.549      27.459      27.327      27.181      27.048      26.955      26.922      26.955      27.048      27.181    
  27.327      27.459      27.549      27.581      27.549      27.459      27.327      27.181      27.048      26.955    
  26.922      26.955      27.048      27.181      27.327      27.459      27.549      27.581      27.549      27.459    
  27.327      27.181      27.048      26.955      26.922      26.955      27.048      27.181      27.327      27.459    
  27.549      27.581      27.549      27.459      27.327      27.181      27.048      26.955      32.572      32.586    
  32.615      32.632      32.599      32.477      32.236      31.858      31.344      30.711      29.986      29.209    
  28.420      27.658      26.955      26.329      25.784      25.313      24.898      24.518      24.154      23.795    
  23.437      23.087      22.760      22.474      22.252      22.110      22.061      22.110      22.252      22.474    