diamond Si                              
   5.43100000000000     
     1.006744   -0.000000   -0.000000
     0.000000    1.006744    0.000000
     0.000000   -0.000000    1.006744
   Si
     8
Direct
 -0.000000 -0.000000 -0.000000
  0.000000  0.500000  0.500000
  0.500000  0.000000  0.500000
  0.500000  0.500000 -0.000000
  0.250000  0.250000  0.250000
  0.750000  0.750000  0.250000
  0.750000  0.250000  0.750000
  0.250000  0.750000  0.750000
 
   56   56   56
 -.31161913162E+02 -.26457354851E+02 -.13418516999E+02 0.50577428589E+01 0.25106954728E+02
 0.42957519773E+02 0.55837530499E+02 0.62477618828E+02 0.63138161012E+02 0.59246150788E+02
 0.52813011185E+02 0.45707005359E+02 0.38762115207E+02 0.32343867432E+02 0.26660914582E+02
 0.21795703080E+02 0.17740241394E+02 0.14429584489E+02 0.11769255558E+02 0.96555929700E+01
 0.79894200779E+01 0.66839173553E+01 0.56678103405E+01 0.48852609263E+01 0.42939706499E+01
 0.38627651478E+01 0.35694328039E+01 0.33991165691E+01 0.33432741964E+01 0.33991165691E+01
 0.35694328039E+01 0.38627651478E+01 0.42939706499E+01 0.48852609263E+01 0.56678103405E+01
 0.66839173553E+01 0.79894200779E+01 0.96555929700E+01 0.11769255558E+02 0.14429584489E+02
 0.17740241394E+02 0.21795703080E+02 0.26660914582E+02 0.32343867432E+02 0.38762115207E+02
 0.45707005359E+02 0.52813011185E+02 0.59246150788E+02 0.63138161012E+02 0.62477618828E+02
 0.55837530499E+02 0.42957519773E+02 0.25106954728E+02 0.50577428589E+01 -.13418516999E+02
 -.26457354851E+02 -.26457354851E+02 -.21918515563E+02 -.93474508849E+01 0.84393226972E+01
 0.27688053287E+02 0.44742048301E+02 0.56924873317E+02 0.63028065920E+02 0.63333717288E+02
 0.59255817655E+02 0.52768380173E+02 0.45672648496E+02 0.38749009103E+02 0.32354458747E+02
 0.26692679862E+02 0.21843776392E+02 0.17799273509E+02 0.14494845678E+02 0.11837120461E+02
 0.97236073428E+01 0.80561406981E+01 0.67486650305E+01 0.57304200541E+01 0.49458729803E+01
 0.43528809846E+01 0.39203346169E+01 0.36260423955E+01 0.34551506440E+01 0.33991165691E+01
 0.34551506440E+01 0.36260423955E+01 0.39203346169E+01 0.43528809846E+01 0.49458729803E+01
 0.57304200541E+01 0.67486650305E+01 0.80561406981E+01 0.97236073428E+01 0.11837120461E+02
 0.14494845678E+02 0.17799273509E+02 0.21843776392E+02 0.26692679862E+02 0.32354458747E+02
 0.38749009103E+02 0.45672648496E+02 0.52768380173E+02 0.59255817655E+02 0.63333717288E+02
 0.63028065920E+02 0.56924873317E+02 0.44742048301E+02 0.27688053287E+02 0.84393226972E+01
 -.93474508849E+01 -.21918515563E+02 -.13418516999E+02 -.93474508849E+01 0.19040692703E+01
 0.17748456936E+02 0.34747067241E+02 0.49569535249E+02 0.59809528848E+02 0.64429426032E+02
 0.63770008450E+02 0.59204927860E+02 0.52598608470E+02 0.45546875343E+02 0.38694833266E+02
 0.32376385047E+02 0.26781430780E+02 0.21983773512E+02 0.17973906784E+02 0.14689572267E+02
 0.12040798106E+02 0.99286390081E+01 0.82579781157E+01 0.69450705140E+01 0.59207265556E+01
 0.51303669870E+01 0.45323578434E+01 0.40958229967E+01 0.37986600966E+01 0.36260423955E+01
 0.35694328039E+01 0.36260423955E+01 0.37986600966E+01 0.40958229967E+01 0.45323578434E+01
 0.51303669870E+01 0.59207265556E+01 0.69450705140E+01 0.82579781157E+01 0.99286390081E+01
 0.12040798106E+02 0.14689572267E+02 0.17973906784E+02 0.21983773512E+02 0.26781430780E+02
 0.32376385047E+02 0.38694833266E+02 0.45546875343E+02 0.52598608470E+02 0.59204927860E+02
 0.63770008450E+02 0.64429426032E+02 0.59809528848E+02 0.49569535249E+02 0.34747067241E+02
 0.17748456936E+02 0.19040692703E+01 -.93474508849E+01 0.50577428589E+01 0.84393226972E+01
 0.17748456936E+02 0.30741689293E+02 0.44452886403E+02 0.56038892080E+02 0.63493417414E+02
 0.66027270068E+02 0.64059501078E+02 0.58892821404E+02 0.52212409739E+02 0.45269818690E+02
 0.38559864416E+02 0.32382846434E+02 0.26909010855E+02 0.22203771428E+02 0.18257090599E+02
 0.15010720004E+02 0.12380566531E+02 0.10273651552E+02 0.85999632692E+01 0.72796523703E+01
 0.62462296591E+01 0.54468219120E+01 0.48407761196E+01 0.43977292845E+01 0.40958229967E+01
 0.39203346169E+01 0.38627651478E+01 0.39203346169E+01 0.40958229967E+01 0.43977292845E+01
 0.48407761196E+01 0.54468219120E+01 0.62462296591E+01 0.72796523703E+01 0.85999632692E+01
 0.10273651552E+02 0.12380566531E+02 0.15010720004E+02 0.18257090599E+02 0.22203771428E+02
 0.26909010855E+02 0.32382846434E+02 0.38559864416E+02 0.45269818690E+02 0.52212409739E+02
 0.58892821404E+02 0.64059501078E+02 0.66027270068E+02 0.63493417414E+02 0.56038892080E+02
 0.44452886403E+02 0.30741689293E+02 0.17748456936E+02 0.84393226972E+01 0.25106954728E+02
 0.27688053287E+02 0.34747067241E+02 0.44452886403E+02 0.54403424073E+02 0.62333140848E+02
 0.66703879727E+02 0.67008189261E+02 0.63739776989E+02 0.58096437831E+02 0.51496357449E+02
 0.44765576434E+02 0.38292110601E+02 0.32337347665E+02 0.27049670825E+02 0.22486264075E+02
 0.18638227470E+02 0.15453720911E+02 0.12857084433E+02 0.10763669442E+02 0.90905737121E+01
 0.77634417594E+01 0.67197029440E+01 0.59090901942E+01 0.52925805366E+01 0.48407761196E+01
 0.45323578434E+01 0.43528809846E+01 0.42939706499E+01 0.43528809846E+01 0.45323578434E+01
 0.48407761196E+01 0.52925805366E+01 0.59090901942E+01 0.67197029440E+01 0.77634417594E+01
 0.90905737121E+01 0.10763669442E+02 0.12857084433E+02 0.15453720911E+02 0.18638227470E+02
 0.22486264075E+02 0.27049670825E+02 0.32337347665E+02 0.38292110601E+02 0.44765576434E+02
 0.51496357449E+02 0.58096437831E+02 0.63739776989E+02 0.67008189261E+02 0.66703879727E+02
 0.62333140848E+02 0.54403424073E+02 0.44452886403E+02 0.34747067241E+02 0.27688053287E+02
 0.42957519773E+02 0.44742048301E+02 0.49569535249E+02 0.56038892080E+02 0.62333140848E+02
 0.66779975146E+02 0.68312584857E+02 0.66693063769E+02 0.62463549333E+02 0.56680898835E+02
 0.50354882870E+02 0.43967440550E+02 0.37842807235E+02 0.32203001513E+02 0.27175533567E+02
 0.22811301263E+02 0.19104933420E+02 0.16013454277E+02 0.13471943635E+02 0.11406149548E+02
 0.97420769831E+01 0.84123930013E+01 0.73597247946E+01 0.65374690795E+01 0.59090901942E+01
 0.54468219120E+01 0.51303669870E+01 0.49458729803E+01 0.48852609263E+01 0.49458729803E+01
 0.51303669870E+01 0.54468219120E+01 0.59090901942E+01 0.65374690795E+01 0.73597247946E+01
 0.84123930013E+01 0.97420769831E+01 0.11406149548E+02 0.13471943635E+02 0.16013454277E+02
 0.19104933420E+02 0.22811301263E+02 0.27175533567E+02 0.32203001513E+02 0.37842807235E+02
 0.43967440550E+02 0.50354882870E+02 0.56680898835E+02 0.62463549333E+02 0.66693063769E+02
 0.68312584857E+02 0.66779975146E+02 0.62333140848E+02 0.56038892080E+02 0.49569535249E+02
 0.44742048301E+02 0.55837530499E+02 0.56924873317E+02 0.59809528848E+02 0.63493417414E+02
 0.66703879727E+02 0.68312584857E+02 0.67672089239E+02 0.64764541396E+02 0.60137832801E+02
 0.54620355597E+02 0.48740637215E+02 0.42837848684E+02 0.37179457636E+02 0.31951028281E+02
 0.27262143007E+02 0.23160118243E+02 0.19645410556E+02 0.16685802513E+02 0.14228721196E+02
 0.12211764634E+02 0.10571223520E+02 0.92481151357E+01 0.81915336172E+01 0.73597247946E+01
 0.67197029440E+01 0.62462296591E+01 0.59207265556E+01 0.57304200541E+01 0.56678103405E+01
 0.57304200541E+01 0.59207265556E+01 0.62462296591E+01 0.67197029440E+01 0.73597247946E+01
 0.81915336172E+01 0.92481151357E+01 0.10571223520E+02 0.12211764634E+02 0.14228721196E+02
 0.16685802513E+02 0.19645410556E+02 0.23160118243E+02 0.27262143007E+02 0.31951028281E+02
 0.37179457636E+02 0.42837848684E+02 0.48740637215E+02 0.54620355597E+02 0.60137832801E+02
 0.64764541396E+02 0.67672089239E+02 0.68312584857E+02 0.66703879727E+02 0.63493417414E+02
 0.59809528848E+02 0.56924873317E+02 0.62477618828E+02 0.63028065920E+02 0.64429426032E+02
 0.66027270068E+02 0.67008189261E+02 0.66693063769E+02 0.64764541396E+02 0.61352277700E+02
 0.56938003281E+02 0.51943036449E+02 0.46666137939E+02 0.41377392948E+02 0.36292921202E+02
 0.31566399798E+02 0.27292955239E+02 0.23518648860E+02 0.20251114268E+02 0.17469614680E+02
 0.15134410917E+02 0.13195494407E+02 0.11600186134E+02 0.10298823535E+02 0.92481151357E+01
 0.84123930013E+01 0.77634417594E+01 0.72796523703E+01 0.69450705140E+01 0.67486650305E+01
 0.66839173553E+01 0.67486650305E+01 0.69450705140E+01 0.72796523703E+01 0.77634417594E+01
 0.84123930013E+01 0.92481151357E+01 0.10298823535E+02 0.11600186134E+02 0.13195494407E+02
 0.15134410917E+02 0.17469614680E+02 0.20251114268E+02 0.23518648860E+02 0.27292955239E+02
 0.31566399798E+02 0.36292921202E+02 0.41377392948E+02 0.46666137939E+02 0.51943036449E+02
 0.56938003281E+02 0.61352277700E+02 0.64764541396E+02 0.66693063769E+02 0.67008189261E+02
 0.66027270068E+02 0.64429426032E+02 0.63028065920E+02 0.63138161012E+02 0.63333717288E+02
 0.63770008450E+02 0.64059501078E+02 0.63739776989E+02 0.62463549333E+02 0.60137832801E+02
 0.56938003281E+02 0.53072862877E+02 0.48750403733E+02 0.44197210892E+02 0.39622596553E+02
 0.35197983317E+02 0.31049989931E+02 0.27262143007E+02 0.23880331134E+02 0.20919172501E+02
 0.18368587252E+02 0.16200793793E+02 0.14377628074E+02 0.12857388017E+02 0.11600186134E+02
 0.10571223520E+02 0.97420769831E+01 0.90905737121E+01 0.85999632692E+01 0.82579781157E+01
 0.80561406981E+01 0.79894200779E+01 0.80561406981E+01 0.82579781157E+01 0.85999632692E+01
 0.90905737121E+01 0.97420769831E+01 0.10571223520E+02 0.11600186134E+02 0.12857388017E+02
 0.14377628074E+02 0.16200793793E+02 0.18368587252E+02 0.20919172501E+02 0.23880331134E+02
 0.27262143007E+02 0.31049989931E+02 0.35197983317E+02 0.39622596553E+02 0.44197210892E+02
 0.48750403733E+02 0.53072862877E+02 0.56938003281E+02 0.60137832801E+02 0.62463549333E+02
 0.63739776989E+02 0.64059501078E+02 0.63770008450E+02 0.63333717288E+02 0.59246150788E+02
 0.59255817655E+02 0.59204927860E+02 0.58892821404E+02 0.58096437831E+02 0.56680898835E+02
 0.54620355597E+02 0.51943036449E+02 0.48750403733E+02 0.45192353871E+02 0.41435172497E+02
 0.37636264227E+02 0.33929203532E+02 0.30417781180E+02 0.27175533567E+02 0.24247646742E+02
 0.21653847340E+02 0.19392332528E+02 0.17445058480E+02 0.15784044071E+02 0.14377628074E+02
 0.13195494407E+02 0.12211764634E+02 0.11406149548E+02 0.10763669442E+02 0.10273651552E+02
 0.99286390081E+01 0.97236073428E+01 0.96555929700E+01 0.97236073428E+01 0.99286390081E+01
 0.10273651552E+02 0.10763669442E+02 0.11406149548E+02 0.12211764634E+02 0.13195494407E+02
 0.14377628074E+02 0.15784044071E+02 0.17445058480E+02 0.19392332528E+02 0.21653847340E+02
 0.24247646742E+02 0.27175533567E+02 0.30417781180E+02 0.33929203532E+02 0.37636264227E+02
 0.41435172497E+02 0.45192353871E+02 0.48750403733E+02 0.51943036449E+02 0.54620355597E+02
 0.56680898835E+02 0.58096437831E+02 0.58892821404E+02 0.59204927860E+02 0.59255817655E+02
 0.52813011185E+02 0.52768380173E+02 0.52598608470E+02 0.52212409739E+02 0.51496357449E+02
 0.50354882870E+02 0.48740637215E+02 0.46666137939E+02 0.44197210892E+02 0.41435172497E+02
 0.38496381549E+02 0.35495470806E+02 0.32534631342E+02 0.29698091309E+02 0.27049670825E+02
 0.24631881289E+02 0.22466322683E+02 0.20555877595E+02 0.18888937377E+02 0.17445058480E+02
 0.16200793793E+02 0.15134410917E+02 0.14228721196E+02 0.13471943635E+02 0.12857084433E+02
 0.12380566531E+02 0.12040798106E+02 0.11837120461E+02 0.11769255558E+02 0.11837120461E+02
 0.12040798106E+02 0.12380566531E+02 0.12857084433E+02 0.13471943635E+02 0.14228721196E+02
 0.15134410917E+02 0.16200793793E+02 0.17445058480E+02 0.18888937377E+02 0.20555877595E+02
 0.22466322683E+02 0.24631881289E+02 0.27049670825E+02 0.29698091309E+02 0.32534631342E+02
 0.35495470806E+02 0.38496381549E+02 0.41435172497E+02 0.44197210892E+02 0.46666137939E+02
 0.48740637215E+02 0.50354882870E+02 0.51496357449E+02 0.52212409739E+02 0.52598608470E+02
 0.52768380173E+02 0.45707005359E+02 0.45672648496E+02 0.45546875343E+02 0.45269818690E+02
 0.44765576434E+02 0.43967440550E+02 0.42837848684E+02 0.41377392948E+02 0.39622596553E+02
 0.37636264227E+02 0.35495470806E+02 0.33280954232E+02 0.31069306524E+02 0.28927523358E+02
 0.26909010855E+02 0.25050783706E+02 0.23372375464E+02 0.21877122749E+02 0.20555877595E+02
 0.19392332528E+02 0.18368587252E+02 0.17469614680E+02 0.16685802513E+02 0.16013454277E+02
 0.15453720911E+02 0.15010720004E+02 0.14689572267E+02 0.14494845678E+02 0.14429584489E+02
 0.14494845678E+02 0.14689572267E+02 0.15010720004E+02 0.15453720911E+02 0.16013454277E+02
 0.16685802513E+02 0.17469614680E+02 0.18368587252E+02 0.19392332528E+02 0.20555877595E+02
 0.21877122749E+02 0.23372375464E+02 0.25050783706E+02 0.26909010855E+02 0.28927523358E+02
 0.31069306524E+02 0.33280954232E+02 0.35495470806E+02 0.37636264227E+02 0.39622596553E+02
 0.41377392948E+02 0.42837848684E+02 0.43967440550E+02 0.44765576434E+02 0.45269818690E+02
 0.45546875343E+02 0.45672648496E+02 0.38762115207E+02 0.38749009103E+02 0.38694833266E+02
 0.38559864416E+02 0.38292110601E+02 0.37842807235E+02 0.37179457636E+02 0.36292921202E+02
 0.35197983317E+02 0.33929203532E+02 0.32534631342E+02 0.31069306524E+02 0.29589257615E+02
 0.28145974885E+02 0.26781430780E+02 0.25524264597E+02 0.24388063243E+02 0.23372375464E+02
 0.22466322683E+02 0.21653847340E+02 0.20919172501E+02 0.20251114268E+02 0.19645410556E+02
 0.19104933420E+02 0.18638227470E+02 0.18257090599E+02 0.17973906784E+02 0.17799273509E+02
 0.17740241394E+02 0.17799273509E+02 0.17973906784E+02 0.18257090599E+02 0.18638227470E+02
 0.19104933420E+02 0.19645410556E+02 0.20251114268E+02 0.20919172501E+02 0.21653847340E+02
 0.22466322683E+02 0.23372375464E+02 0.24388063243E+02 0.25524264597E+02 0.26781430780E+02
 0.28145974885E+02 0.29589257615E+02 0.31069306524E+02 0.32534631342E+02 0.33929203532E+02
 0.35197983317E+02 0.36292921202E+02 0.37179457636E+02 0.37842807235E+02 0.38292110601E+02
 0.38559864416E+02 0.38694833266E+02 0.38749009103E+02 0.32343867432E+02 0.32354458747E+02
 0.32376385047E+02 0.32382846434E+02 0.32337347665E+02 0.32203001513E+02 0.31951028281E+02
 0.31566399798E+02 0.31049989931E+02 0.30417781180E+02 0.29698091309E+02 0.28927523358E+02
 0.28145974885E+02 0.27391057750E+02 0.26692679862E+02 0.26068917915E+02 0.25524264597E+02
 0.25050783706E+02 0.24631881289E+02 0.24247646742E+02 0.23880331134E+02 0.23518648860E+02
 0.23160118243E+02 0.22811301263E+02 0.22486264075E+02 0.22203771428E+02 0.21983773512E+02
 0.21843776392E+02 0.21795703080E+02 0.21843776392E+02 0.21983773512E+02 0.22203771428E+02
 0.22486264075E+02 0.22811301263E+02 0.23160118243E+02 0.23518648860E+02 0.23880331134E+02
 0.24247646742E+02 0.24631881289E+02 0.25050783706E+02 0.25524264597E+02 0.26068917915E+02
 0.26692679862E+02 0.27391057750E+02 0.28145974885E+02 0.28927523358E+02 0.29698091309E+02
 0.30417781180E+02 0.31049989931E+02 0.31566399798E+02 0.31951028281E+02 0.32203001513E+02
 0.32337347665E+02 0.32382846434E+02 0.32376385047E+02 0.32354458747E+02 0.26660914582E+02
 0.26692679862E+02 0.26781430780E+02 0.26909010855E+02 0.27049670825E+02 0.27175533567E+02
 0.27262143007E+02 0.27292955239E+02 0.27262143007E+02 0.27175533567E+02 0.27049670825E+02
 0.26909010855E+02 0.26781430780E+02 0.26692679862E+02 0.26660914582E+02 0.26692679862E+02
 0.26781430780E+02 0.26909010855E+02 0.27049670825E+02 0.27175533567E+02 0.27262143007E+02
 0.27292955239E+02 0.27262143007E+02 0.27175533567E+02 0.27049670825E+02 0.26909010855E+02
 0.26781430780E+02 0.26692679862E+02 0.26660914582E+02 0.26692679862E+02 0.26781430780E+02
 0.26909010855E+02 0.27049670825E+02 0.27175533567E+02 0.27262143007E+02 0.27292955239E+02
 0.27262143007E+02 0.27175533567E+02 0.27049670825E+02 0.26909010855E+02 0.26781430780E+02
 0.26692679862E+02 0.26660914582E+02 0.26692679862E+02 0.26781430780E+02 0.26909010855E+02
 0.27049670825E+02 0.27175533567E+02 0.27262143007E+02 0.27292955239E+02 0.27262143007E+02
 0.27175533567E+02 0.27049670825E+02 0.26909010855E+02 0.26781430780E+02 0.26692679862E+02
 0.21795703080E+02 0.21843776392E+02 0.21983773512E+02 0.22203771428E+02 0.22486264075E+02
 0.22811301263E+02 0.23160118243E+02 0.23518648860E+02 0.23880331134E+02 0.24247646742E+02
 0.24631881289E+02 0.25050783706E+02 0.25524264597E+02 0.26068917915E+02 0.26692679862E+02
 0.27391057750E+02 0.28145974885E+02 0.28927523358E+02 0.29698091309E+02 0.30417781180E+02
 0.31049989931E+02 0.31566399798E+02 0.31951028281E+02 0.32203001513E+02 0.32337347665E+02
 0.32382846434E+02 0.32376385047E+02 0.32354458747E+02 0.32343867432E+02 0.32354458747E+02
 0.32376385047E+02 0.32382846434E+02 0.32337347665E+02 0.32203001513E+02 0.31951028281E+02
 0.31566399798E+02 0.31049989931E+02 0.30417781180E+02 0.29698091309E+02 0.28927523358E+02
 0.28145974885E+02 0.27391057750E+02 0.26692679862E+02 0.26068917915E+02 0.25524264597E+02
 0.25050783706E+02 0.24631881289E+02 0.24247646742E+02 0.23880331134E+02 0.23518648860E+02
 0.23160118243E+02 0.22811301263E+02 0.22486264075E+02 0.22203771428E+02 0.21983773512E+02
 0.21843776392E+02 0.17740241394E+02 0.17799273509E+02 0.17973906784E+02 0.18257090599E+02
 0.18638227470E+02 0.19104933420E+02 0.19645410556E+02 0.20251114268E+02 0.20919172501E+02
 0.21653847340E+02 0.22466322683E+02 0.23372375464E+02 0.24388063243E+02 0.25524264597E+02
 0.26781430780E+02 0.28145974885E+02 0.29589257615E+02 0.31069306524E+02 0.32534631342E+02
 0.33929203532E+02 0.35197983317E+02 0.36292921202E+02 0.37179457636E+02 0.37842807235E+02
 0.38292110601E+02 0.38559864416E+02 0.38694833266E+02 0.38749009103E+02 0.38762115207E+02
 0.38749009103E+02 0.38694833266E+02 0.38559864416E+02 0.38292110601E+02 0.37842807235E+02
 0.37179457636E+02 0.36292921202E+02 0.35197983317E+02 0.33929203532E+02 0.32534631342E+02
 0.31069306524E+02 0.29589257615E+02 0.28145974885E+02 0.26781430780E+02 0.25524264597E+02
 0.24388063243E+02 0.23372375464E+02 0.22466322683E+02 0.21653847340E+02 0.20919172501E+02
 0.20251114268E+02 0.19645410556E+02 0.19104933420E+02 0.18638227470E+02 0.18257090599E+02
 0.17973906784E+02 0.17799273509E+02 0.14429584489E+02 0.14494845678E+02 0.14689572267E+02
 0.15010720004E+02 0.15453720911E+02 0.16013454277E+02 0.16685802513E+02 0.17469614680E+02
 0.18368587252E+02 0.19392332528E+02 0.20555877595E+02 0.21877122749E+02 0.23372375464E+02
 0.25050783706E+02 0.26909010855E+02 0.28927523358E+02 0.31069306524E+02 0.33280954232E+02
 0.35495470806E+02 0.37636264227E+02 0.39622596553E+02 0.41377392948E+02 0.42837848684E+02
 0.43967440550E+02 0.44765576434E+02 0.45269818690E+02 0.45546875343E+02 0.45672648496E+02
 0.45707005359E+02 0.45672648496E+02 0.45546875343E+02 0.45269818690E+02 0.44765576434E+02
 0.43967440550E+02 0.42837848684E+02 0.41377392948E+02 0.39622596553E+02 0.37636264227E+02
 0.35495470806E+02 0.33280954232E+02 0.31069306524E+02 0.28927523358E+02 0.26909010855E+02
 0.25050783706E+02 0.23372375464E+02 0.21877122749E+02 0.20555877595E+02 0.19392332528E+02
 0.18368587252E+02 0.17469614680E+02 0.16685802513E+02 0.16013454277E+02 0.15453720911E+02
 0.15010720004E+02 0.14689572267E+02 0.14494845678E+02 0.11769255558E+02 0.11837120461E+02
 0.12040798106E+02 0.12380566531E+02 0.12857084433E+02 0.13471943635E+02 0.14228721196E+02
 0.15134410917E+02 0.16200793793E+02 0.17445058480E+02 0.18888937377E+02 0.20555877595E+02
 0.22466322683E+02 0.24631881289E+02 0.27049670825E+02 0.29698091309E+02 0.32534631342E+02
 0.35495470806E+02 0.38496381549E+02 0.41435172497E+02 0.44197210892E+02 0.46666137939E+02
 0.48740637215E+02 0.50354882870E+02 0.51496357449E+02 0.52212409739E+02 0.52598608470E+02
 0.52768380173E+02 0.52813011185E+02 0.52768380173E+02 0.52598608470E+02 0.52212409739E+02
 0.51496357449E+02 0.50354882870E+02 0.48740637215E+02 0.46666137939E+02 0.44197210892E+02
 0.41435172497E+02 0.38496381549E+02 0.35495470806E+02 0.32534631342E+02 0.29698091309E+02
 0.27049670825E+02 0.24631881289E+02 0.22466322683E+02 0.20555877595E+02 0.18888937377E+02
 0.17445058480E+02 0.16200793793E+02 0.15134410917E+02 0.14228721196E+02 0.13471943635E+02
 0.12857084433E+02 0.12380566531E+02 0.12040798106E+02 0.11837120461E+02 0.96555929700E+01
 0.97236073428E+01 0.99286390081E+01 0.10273651552E+02 0.10763669442E+02 0.11406149548E+02
 0.12211764634E+02 0.13195494407E+02 0.14377628074E+02 0.15784044071E+02 0.17445058480E+02
 0.19392332528E+02 0.21653847340E+02 0.24247646742E+02 0.27175533567E+02 0.30417781180E+02
 0.33929203532E+02 0.37636264227E+02 0.41435172497E+02 0.45192353871E+02 0.48750403733E+02
 0.51943036449E+02 0.54620355597E+02 0.56680898835E+02 0.58096437831E+02 0.58892821404E+02
 0.59204927860E+02 0.59255817655E+02 0.59246150788E+02 0.59255817655E+02 0.59204927860E+02
 0.58892821404E+02 0.58096437831E+02 0.56680898835E+02 0.54620355597E+02 0.51943036449E+02
 0.48750403733E+02 0.45192353871E+02 0.41435172497E+02 0.37636264227E+02 0.33929203532E+02
 0.30417781180E+02 0.27175533567E+02 0.24247646742E+02 0.21653847340E+02 0.19392332528E+02
 0.17445058480E+02 0.15784044071E+02 0.14377628074E+02 0.13195494407E+02 0.12211764634E+02
 0.11406149548E+02 0.10763669442E+02 0.10273651552E+02 0.99286390081E+01 0.97236073428E+01
 0.79894200779E+01 0.80561406981E+01 0.82579781157E+01 0.85999632692E+01 0.90905737121E+01
 0.97420769831E+01 0.10571223520E+02 0.11600186134E+02 0.12857388017E+02 0.14377628074E+02
 0.16200793793E+02 0.18368587252E+02 0.20919172501E+02 0.23880331134E+02 0.27262143007E+02
 0.31049989931E+02 0.35197983317E+02 0.39622596553E+02 0.44197210892E+02 0.48750403733E+02
 0.53072862877E+02 0.56938003281E+02 0.60137832801E+02 0.62463549333E+02 0.63739776989E+02
 0.64059501078E+02 0.63770008450E+02 0.63333717288E+02 0.63138161012E+02 0.63333717288E+02
 0.63770008450E+02 0.64059501078E+02 0.63739776989E+02 0.62463549333E+02 0.60137832801E+02
 0.56938003281E+02 0.53072862877E+02 0.48750403733E+02 0.44197210892E+02 0.39622596553E+02
 0.35197983317E+02 0.31049989931E+02 0.27262143007E+02 0.23880331134E+02 0.20919172501E+02
 0.18368587252E+02 0.16200793793E+02 0.14377628074E+02 0.12857388017E+02 0.11600186134E+02
 0.10571223520E+02 0.97420769831E+01 0.90905737121E+01 0.85999632692E+01 0.82579781157E+01
 0.80561406981E+01 0.66839173553E+01 0.67486650305E+01 0.69450705140E+01 0.72796523703E+01
 0.77634417594E+01 0.84123930013E+01 0.92481151357E+01 0.10298823535E+02 0.11600186134E+02
 0.13195494407E+02 0.15134410917E+02 0.17469614680E+02 0.20251114268E+02 0.23518648860E+02
 0.27292955239E+02 0.31566399798E+02 0.36292921202E+02 0.41377392948E+02 0.46666137939E+02
 0.51943036449E+02 0.56938003281E+02 0.61352277700E+02 0.64764541396E+02 0.66693063769E+02
 0.67008189261E+02 0.66027270068E+02 0.64429426032E+02 0.63028065920E+02 0.62477618828E+02
 0.63028065920E+02 0.64429426032E+02 0.66027270068E+02 0.67008189261E+02 0.66693063769E+02
 0.64764541396E+02 0.61352277700E+02 0.56938003281E+02 0.51943036449E+02 0.46666137939E+02
 0.41377392948E+02 0.36292921202E+02 0.31566399798E+02 0.27292955239E+02 0.23518648860E+02
 0.20251114268E+02 0.17469614680E+02 0.15134410917E+02 0.13195494407E+02 0.11600186134E+02
 0.10298823535E+02 0.92481151357E+01 0.84123930013E+01 0.77634417594E+01 0.72796523703E+01
 0.69450705140E+01 0.67486650305E+01 0.56678103405E+01 0.57304200541E+01 0.59207265556E+01
 0.62462296591E+01 0.67197029440E+01 0.73597247946E+01 0.81915336172E+01 0.92481151357E+01
 0.10571223520E+02 0.12211764634E+02 0.14228721196E+02 0.16685802513E+02 0.19645410556E+02
 0.23160118243E+02 0.27262143007E+02 0.31951028281E+02 0.37179457636E+02 0.42837848684E+02
 0.48740637215E+02 0.54620355597E+02 0.60137832801E+02 0.64764541396E+02 0.67672089239E+02
 0.68312584857E+02 0.66703879727E+02 0.63493417414E+02 0.59809528848E+02 0.56924873317E+02
 0.55837530499E+02 0.56924873317E+02 0.59809528848E+02 0.63493417414E+02 0.66703879727E+02
 0.68312584857E+02 0.67672089239E+02 0.64764541396E+02 0.60137832801E+02 0.54620355597E+02
 0.48740637215E+02 0.42837848684E+02 0.37179457636E+02 0.31951028281E+02 0.27262143007E+02
 0.23160118243E+02 0.19645410556E+02 0.16685802513E+02 0.14228721196E+02 0.12211764634E+02
 0.10571223520E+02 0.92481151357E+01 0.81915336172E+01 0.73597247946E+01 0.67197029440E+01
 0.62462296591E+01 0.59207265556E+01 0.57304200541E+01 0.48852609263E+01 0.49458729803E+01
 0.51303669870E+01 0.54468219120E+01 0.59090901942E+01 0.65374690795E+01 0.73597247946E+01
 0.84123930013E+01 0.97420769831E+01 0.11406149548E+02 0.13471943635E+02 0.16013454277E+02
 0.19104933420E+02 0.22811301263E+02 0.27175533567E+02 0.32203001513E+02 0.37842807235E+02
 0.43967440550E+02 0.50354882870E+02 0.56680898835E+02 0.62463549333E+02 0.66693063769E+02
 0.68312584857E+02 0.66779975146E+02 0.62333140848E+02 0.56038892080E+02 0.49569535249E+02
 0.44742048301E+02 0.42957519773E+02 0.44742048301E+02 0.49569535249E+02 0.56038892080E+02
 0.62333140848E+02 0.66779975146E+02 0.68312584857E+02 0.66693063769E+02 0.62463549333E+02
 0.56680898835E+02 0.50354882870E+02 0.43967440550E+02 0.37842807235E+02 0.32203001513E+02
 0.27175533567E+02 0.22811301263E+02 0.19104933420E+02 0.16013454277E+02 0.13471943635E+02
 0.11406149548E+02 0.97420769831E+01 0.84123930013E+01 0.73597247946E+01 0.65374690795E+01
 0.59090901942E+01 0.54468219120E+01 0.51303669870E+01 0.49458729803E+01 0.42939706499E+01
 0.43528809846E+01 0.45323578434E+01 0.48407761196E+01 0.52925805366E+01 0.59090901942E+01
 0.67197029440E+01 0.77634417594E+01 0.90905737121E+01 0.10763669442E+02 0.12857084433E+02
 0.15453720911E+02 0.18638227470E+02 0.22486264075E+02 0.27049670825E+02 0.32337347665E+02
 0.38292110601E+02 0.44765576434E+02 0.51496357449E+02 0.58096437831E+02 0.63739776989E+02
 0.67008189261E+02 0.66703879727E+02 0.62333140848E+02 0.54403424073E+02 0.44452886403E+02
 0.34747067241E+02 0.27688053287E+02 0.25106954728E+02 0.27688053287E+02 0.34747067241E+02
 0.44452886403E+02 0.54403424073E+02 0.62333140848E+02 0.66703879727E+02 0.67008189261E+02
 0.63739776989E+02 0.58096437831E+02 0.51496357449E+02 0.44765576434E+02 0.38292110601E+02
 0.32337347665E+02 0.27049670825E+02 0.22486264075E+02 0.18638227470E+02 0.15453720911E+02
 0.12857084433E+02 0.10763669442E+02 0.90905737121E+01 0.77634417594E+01 0.67197029440E+01
 0.59090901942E+01 0.52925805366E+01 0.48407761196E+01 0.45323578434E+01 0.43528809846E+01
 0.38627651478E+01 0.39203346169E+01 0.40958229967E+01 0.43977292845E+01 0.48407761196E+01
 0.54468219120E+01 0.62462296591E+01 0.72796523703E+01 0.85999632692E+01 0.10273651552E+02
 0.12380566531E+02 0.15010720004E+02 0.18257090599E+02 0.22203771428E+02 0.26909010855E+02
 0.32382846434E+02 0.38559864416E+02 0.45269818690E+02 0.52212409739E+02 0.58892821404E+02
 0.64059501078E+02 0.66027270068E+02 0.63493417414E+02 0.56038892080E+02 0.44452886403E+02
 0.30741689293E+02 0.17748456936E+02 0.84393226972E+01 0.50577428589E+01 0.84393226972E+01
 0.17748456936E+02 0.30741689293E+02 0.44452886403E+02 0.56038892080E+02 0.63493417414E+02
 0.66027270068E+02 0.64059501078E+02 0.58892821404E+02 0.52212409739E+02 0.45269818690E+02
 0.38559864416E+02 0.32382846434E+02 0.26909010855E+02 0.22203771428E+02 0.18257090599E+02
 0.15010720004E+02 0.12380566531E+02 0.10273651552E+02 0.85999632692E+01 0.72796523703E+01
 0.62462296591E+01 0.54468219120E+01 0.48407761196E+01 0.43977292845E+01 0.40958229967E+01
 0.39203346169E+01 0.35694328039E+01 0.36260423955E+01 0.37986600966E+01 0.40958229967E+01
 0.45323578434E+01 0.51303669870E+01 0.59207265556E+01 0.69450705140E+01 0.82579781157E+01
 0.99286390081E+01 0.12040798106E+02 0.14689572267E+02 0.17973906784E+02 0.21983773512E+02
 0.26781430780E+02 0.32376385047E+02 0.38694833266E+02 0.45546875343E+02 0.52598608470E+02
 0.59204927860E+02 0.63770008450E+02 0.64429426032E+02 0.59809528848E+02 0.49569535249E+02
 0.34747067241E+02 0.17748456936E+02 0.19040692703E+01 -.93474508849E+01 -.13418516999E+02
 -.93474508849E+01 0.19040692703E+01 0.17748456936E+02 0.34747067241E+02 0.49569535249E+02
 0.59809528848E+02 0.64429426032E+02 0.63770008450E+02 0.59204927860E+02 0.52598608470E+02
 0.45546875343E+02 0.38694833266E+02 0.32376385047E+02 0.26781430780E+02 0.21983773512E+02
 0.17973906784E+02 0.14689572267E+02 0.12040798106E+02 0.99286390081E+01 0.82579781157E+01
 0.69450705140E+01 0.59207265556E+01 0.51303669870E+01 0.45323578434E+01 0.40958229967E+01
 0.37986600966E+01 0.36260423955E+01 0.33991165691E+01 0.34551506440E+01 0.36260423955E+01
 0.39203346169E+01 0.43528809846E+01 0.49458729803E+01 0.57304200541E+01 0.67486650305E+01
 0.80561406981E+01 0.97236073428E+01 0.11837120461E+02 0.14494845678E+02 0.17799273509E+02
 0.21843776392E+02 0.26692679862E+02 0.32354458747E+02 0.38749009103E+02 0.45672648496E+02
 0.52768380173E+02 0.59255817655E+02 0.63333717288E+02 0.63028065920E+02 0.56924873317E+02
 0.44742048301E+02 0.27688053287E+02 0.84393226972E+01 -.93474508849E+01 -.21918515563E+02
 -.26457354851E+02 -.21918515563E+02 -.93474508849E+01 0.84393226972E+01 0.27688053287E+02
 0.44742048301E+02 0.56924873317E+02 0.63028065920E+02 0.63333717288E+02 0.59255817655E+02
 0.52768380173E+02 0.45672648496E+02 0.38749009103E+02 0.32354458747E+02 0.26692679862E+02
 0.21843776392E+02 0.17799273509E+02 0.14494845678E+02 0.11837120461E+02 0.97236073428E+01
 0.80561406981E+01 0.67486650305E+01 0.57304200541E+01 0.49458729803E+01 0.43528809846E+01
 0.39203346169E+01 0.36260423955E+01 0.34551506440E+01 0.33432741964E+01 0.33991165691E+01
 0.35694328039E+01 0.38627651478E+01 0.42939706499E+01 0.48852609263E+01 0.56678103405E+01
 0.66839173553E+01 0.79894200779E+01 0.96555929700E+01 0.11769255558E+02 0.14429584489E+02
 0.17740241394E+02 0.21795703080E+02 0.26660914582E+02 0.32343867432E+02 0.38762115207E+02
 0.45707005359E+02 0.52813011185E+02 0.59246150788E+02 0.63138161012E+02 0.62477618828E+02
 0.55837530499E+02 0.42957519773E+02 0.25106954728E+02 0.50577428589E+01 -.13418516999E+02
 -.26457354851E+02 -.31161913162E+02 -.26457354851E+02 -.13418516999E+02 0.50577428589E+01
 0.25106954728E+02 0.42957519773E+02 0.55837530499E+02 0.62477618828E+02 0.63138161012E+02
 0.59246150788E+02 0.52813011185E+02 0.45707005359E+02 0.38762115207E+02 0.32343867432E+02
 0.26660914582E+02 0.21795703080E+02 0.17740241394E+02 0.14429584489E+02 0.11769255558E+02
 0.96555929700E+01 0.79894200779E+01 0.66839173553E+01 0.56678103405E+01 0.48852609263E+01