   8   8   0   0
  0.2002393E+02  0.5431000E-09  0.5431000E-09  0.5431000E-09  0.1000000E-14
  1.000000000000000E-004
  CAR 
 diamond Si                              
     10.95452747     -7.18863471  301      6.01478561      1.00000000
     -7.189  0.0000E+00  0.0000E+00
     -7.128  0.0000E+00  0.0000E+00
     -7.068  0.0000E+00  0.0000E+00
     -7.007  0.0000E+00  0.0000E+00
     -6.947  0.0000E+00  0.0000E+00
     -6.886  0.0000E+00  0.0000E+00
     -6.826  0.0000E+00  0.0000E+00
     -6.765  0.2266E-16  0.1371E-17
     -6.705  0.1957E-13  0.1185E-14
     -6.644  0.7865E-11  0.4768E-12
     -6.584  0.1543E-08  0.9379E-10
     -6.523  0.1482E-06  0.9055E-08
     -6.463  0.6993E-05  0.4320E-06
     -6.402  0.1629E-03  0.1028E-04
     -6.342  0.1881E-02  0.1240E-03
     -6.281  0.1082E-01  0.7786E-03
     -6.221  0.3116E-01  0.2663E-02
     -6.161  0.4504E-01  0.5387E-02
     -6.100  0.3271E-01  0.7365E-02
     -6.040  0.1193E-01  0.8086E-02
     -5.979  0.2243E-02  0.8222E-02
     -5.919  0.1613E-02  0.8320E-02
     -5.858  0.1488E-01  0.9220E-02
     -5.798  0.7795E-01  0.1393E-01
     -5.737  0.2045E+00  0.2630E-01
     -5.677  0.2694E+00  0.4260E-01
     -5.616  0.1784E+00  0.5338E-01
     -5.556  0.5927E-01  0.5697E-01
     -5.495  0.1041E-01  0.5760E-01
     -5.435  0.9581E-02  0.5818E-01
     -5.374  0.6764E-01  0.6227E-01
     -5.314  0.2605E+00  0.7802E-01
     -5.253  0.5033E+00  0.1085E+00
     -5.193  0.4885E+00  0.1380E+00
     -5.132  0.2382E+00  0.1524E+00
     -5.072  0.5868E-01  0.1560E+00
     -5.011  0.1421E-01  0.1568E+00
     -4.951  0.5216E-01  0.1600E+00
     -4.891  0.1882E+00  0.1714E+00
     -4.830  0.3435E+00  0.1921E+00
     -4.770  0.3150E+00  0.2112E+00
     -4.709  0.1451E+00  0.2200E+00
     -4.649  0.3348E-01  0.2220E+00
     -4.588  0.3908E-02  0.2222E+00
     -4.528  0.1355E-02  0.2223E+00
     -4.467  0.1262E-01  0.2231E+00
     -4.407  0.6994E-01  0.2273E+00
     -4.346  0.1941E+00  0.2390E+00
     -4.286  0.2703E+00  0.2554E+00
     -4.225  0.1893E+00  0.2668E+00
     -4.165  0.6889E-01  0.2710E+00
     -4.104  0.4312E-01  0.2736E+00
     -4.044  0.2043E+00  0.2860E+00
     -3.983  0.6586E+00  0.3258E+00
     -3.923  0.1086E+01  0.3915E+00
     -3.862  0.1019E+01  0.4531E+00
     -3.802  0.9091E+00  0.5081E+00
     -3.741  0.1098E+01  0.5745E+00
     -3.681  0.9610E+00  0.6326E+00
     -3.620  0.4461E+00  0.6596E+00
     -3.560  0.1044E+00  0.6659E+00
     -3.500  0.1221E-01  0.6666E+00
     -3.439  0.7093E-03  0.6667E+00
     -3.379  0.2041E-04  0.6667E+00
     -3.318  0.2889E-05  0.6667E+00
     -3.258  0.1151E-03  0.6667E+00
     -3.197  0.2514E-02  0.6668E+00
     -3.137  0.2724E-01  0.6685E+00
     -3.076  0.1472E+00  0.6774E+00
     -3.016  0.3979E+00  0.7014E+00
     -2.955  0.5401E+00  0.7341E+00
     -2.895  0.3684E+00  0.7564E+00
     -2.834  0.1261E+00  0.7640E+00
     -2.774  0.2161E-01  0.7653E+00
     -2.713  0.1844E-02  0.7654E+00
     -2.653  0.7802E-04  0.7654E+00
     -2.592  0.1629E-05  0.7654E+00
     -2.532  0.1844E-07  0.7654E+00
     -2.471  0.2103E-06  0.7654E+00
     -2.411  0.1258E-04  0.7654E+00
     -2.350  0.3715E-03  0.7655E+00
     -2.290  0.5475E-02  0.7658E+00
     -2.230  0.4126E-01  0.7683E+00
     -2.169  0.1703E+00  0.7786E+00
     -2.109  0.4474E+00  0.8056E+00
     -2.048  0.8679E+00  0.8581E+00
     -1.988  0.1167E+01  0.9287E+00
     -1.927  0.9155E+00  0.9841E+00
     -1.867  0.3792E+00  0.1007E+01
     -1.806  0.7981E-01  0.1012E+01
     -1.746  0.8415E-02  0.1012E+01
     -1.685  0.4410E-03  0.1012E+01
     -1.625  0.1143E-04  0.1012E+01
     -1.564  0.1456E-06  0.1012E+01
     -1.504  0.2978E-08  0.1012E+01
     -1.443  0.2703E-06  0.1012E+01
     -1.383  0.1733E-04  0.1012E+01
     -1.322  0.5472E-03  0.1012E+01
     -1.262  0.8550E-02  0.1013E+01
     -1.201  0.6645E-01  0.1017E+01
     -1.141  0.2586E+00  0.1033E+01
     -1.080  0.5147E+00  0.1064E+01
     -1.020  0.6000E+00  0.1100E+01
     -0.959  0.7000E+00  0.1142E+01
     -0.899  0.1024E+01  0.1204E+01
     -0.839  0.1024E+01  0.1266E+01
     -0.778  0.5393E+00  0.1299E+01
     -0.718  0.1432E+00  0.1307E+01
     -0.657  0.1900E-01  0.1309E+01
     -0.597  0.1255E-02  0.1309E+01
     -0.536  0.4099E-04  0.1309E+01
     -0.476  0.6598E-06  0.1309E+01
     -0.415  0.5984E-08  0.1309E+01
     -0.355  0.1264E-06  0.1309E+01
     -0.294  0.1013E-04  0.1309E+01
     -0.234  0.3992E-03  0.1309E+01
     -0.173  0.7776E-02  0.1309E+01
     -0.113  0.7520E-01  0.1314E+01
     -0.052  0.3628E+00  0.1336E+01
      0.008  0.8766E+00  0.1389E+01
      0.069  0.1064E+01  0.1453E+01
      0.129  0.6491E+00  0.1492E+01
      0.190  0.2060E+00  0.1505E+01
      0.250  0.8448E-01  0.1510E+01
      0.311  0.1956E+00  0.1522E+01
      0.371  0.3461E+00  0.1543E+01
      0.431  0.3122E+00  0.1561E+01
      0.492  0.1524E+00  0.1571E+01
      0.552  0.9884E-01  0.1577E+01
      0.613  0.1936E+00  0.1588E+01
      0.673  0.2705E+00  0.1605E+01
      0.734  0.1933E+00  0.1616E+01
      0.794  0.6937E-01  0.1621E+01
      0.855  0.1246E-01  0.1621E+01
      0.915  0.1116E-02  0.1621E+01
      0.976  0.5060E-04  0.1621E+01
      1.036  0.5593E-04  0.1621E+01
      1.097  0.1390E-02  0.1621E+01
      1.157  0.1746E-01  0.1623E+01
      1.218  0.1092E+00  0.1629E+01
      1.278  0.3416E+00  0.1650E+01
      1.339  0.5362E+00  0.1682E+01
      1.399  0.4230E+00  0.1708E+01
      1.460  0.1675E+00  0.1718E+01
      1.520  0.3322E-01  0.1720E+01
      1.581  0.3286E-02  0.1720E+01
      1.641  0.1812E-03  0.1720E+01
      1.702  0.6168E-03  0.1720E+01
      1.762  0.9351E-02  0.1721E+01
      1.822  0.7141E-01  0.1725E+01
      1.883  0.2804E+00  0.1742E+01
      1.943  0.6226E+00  0.1780E+01
      2.004  0.1014E+01  0.1841E+01
      2.064  0.1563E+01  0.1936E+01
      2.125  0.1963E+01  0.2054E+01
      2.185  0.1613E+01  0.2152E+01
      2.246  0.7837E+00  0.2199E+01
      2.306  0.2116E+00  0.2212E+01
      2.367  0.3023E-01  0.2214E+01
      2.427  0.2213E-02  0.2214E+01
      2.488  0.8167E-04  0.2214E+01
      2.548  0.2052E-04  0.2214E+01
      2.609  0.5506E-03  0.2214E+01
      2.669  0.8304E-02  0.2215E+01
      2.730  0.6797E-01  0.2219E+01
      2.790  0.3144E+00  0.2238E+01
      2.851  0.8365E+00  0.2288E+01
      2.911  0.1259E+01  0.2364E+01
      2.972  0.1035E+01  0.2427E+01
      3.032  0.4497E+00  0.2454E+01
      3.092  0.1177E+00  0.2461E+01
      3.153  0.1482E+00  0.2470E+01
      3.213  0.5395E+00  0.2503E+01
      3.274  0.1146E+01  0.2572E+01
      3.334  0.1516E+01  0.2664E+01
      3.395  0.1511E+01  0.2755E+01
      3.455  0.1195E+01  0.2828E+01
      3.516  0.8845E+00  0.2881E+01
      3.576  0.8694E+00  0.2934E+01
      3.637  0.7276E+00  0.2978E+01
      3.697  0.3514E+00  0.2999E+01
      3.758  0.1622E+00  0.3009E+01
      3.818  0.3836E+00  0.3032E+01
      3.879  0.8882E+00  0.3086E+01
      3.939  0.1060E+01  0.3150E+01
      4.000  0.6359E+00  0.3188E+01
      4.060  0.1914E+00  0.3200E+01
      4.121  0.2880E-01  0.3202E+01
      4.181  0.2187E-02  0.3202E+01
      4.242  0.9078E-03  0.3202E+01
      4.302  0.1176E-01  0.3202E+01
      4.363  0.8318E-01  0.3207E+01
      4.423  0.2949E+00  0.3225E+01
      4.483  0.5365E+00  0.3258E+01
      4.544  0.5753E+00  0.3293E+01
      4.604  0.6007E+00  0.3329E+01
      4.665  0.7414E+00  0.3374E+01
      4.725  0.6221E+00  0.3411E+01
      4.786  0.2753E+00  0.3428E+01
      4.846  0.6206E-01  0.3432E+01
      4.907  0.1613E-01  0.3433E+01
      4.967  0.7076E-01  0.3437E+01
      5.028  0.2668E+00  0.3453E+01
      5.088  0.5070E+00  0.3484E+01
      5.149  0.4840E+00  0.3513E+01
      5.209  0.2321E+00  0.3527E+01
      5.270  0.5580E-01  0.3530E+01
      5.330  0.6699E-02  0.3531E+01
      5.391  0.4601E-03  0.3531E+01
      5.451  0.1144E-02  0.3531E+01
      5.512  0.1051E-01  0.3532E+01
      5.572  0.4868E-01  0.3535E+01
      5.633  0.1130E+00  0.3541E+01
      5.693  0.1316E+00  0.3549E+01
      5.753  0.7708E-01  0.3554E+01
      5.814  0.2264E-01  0.3555E+01
      5.874  0.3325E-02  0.3556E+01
      5.935  0.2430E-03  0.3556E+01
      5.995  0.8802E-05  0.3556E+01
      6.056  0.9902E-06  0.3556E+01
      6.116  0.4448E-04  0.3556E+01
      6.177  0.1172E-02  0.3556E+01
      6.237  0.1531E-01  0.3557E+01
      6.298  0.9969E-01  0.3563E+01
      6.358  0.3249E+00  0.3582E+01
      6.419  0.5317E+00  0.3614E+01
      6.479  0.4376E+00  0.3641E+01
      6.540  0.1810E+00  0.3652E+01
      6.600  0.3755E-01  0.3654E+01
      6.661  0.3889E-02  0.3654E+01
      6.721  0.2001E-03  0.3654E+01
      6.782  0.5094E-05  0.3654E+01
      6.842  0.8460E-07  0.3654E+01
      6.903  0.1962E-05  0.3654E+01
      6.963  0.9111E-04  0.3654E+01
      7.024  0.2091E-02  0.3654E+01
      7.084  0.2391E-01  0.3656E+01
      7.144  0.1383E+00  0.3664E+01
      7.205  0.4205E+00  0.3690E+01
      7.265  0.7390E+00  0.3734E+01
      7.326  0.8794E+00  0.3788E+01
      7.386  0.7597E+00  0.3834E+01
      7.447  0.4232E+00  0.3859E+01
      7.507  0.1535E+00  0.3868E+01
      7.568  0.1936E+00  0.3880E+01
      7.628  0.6573E+00  0.3920E+01
      7.689  0.1256E+01  0.3996E+01
      7.749  0.1216E+01  0.4069E+01
      7.810  0.5935E+00  0.4105E+01
      7.870  0.1458E+00  0.4114E+01
      7.931  0.1799E-01  0.4115E+01
      7.991  0.1732E-02  0.4115E+01
      8.052  0.6851E-02  0.4116E+01
      8.112  0.3687E-01  0.4118E+01
      8.173  0.1013E+00  0.4124E+01
      8.233  0.1606E+00  0.4134E+01
      8.294  0.2735E+00  0.4150E+01
      8.354  0.7029E+00  0.4193E+01
      8.414  0.1393E+01  0.4277E+01
      8.475  0.1787E+01  0.4385E+01
      8.535  0.1611E+01  0.4483E+01
      8.596  0.1156E+01  0.4553E+01
      8.656  0.7673E+00  0.4599E+01
      8.717  0.4142E+00  0.4624E+01
      8.777  0.1361E+00  0.4632E+01
      8.838  0.2361E-01  0.4634E+01
      8.898  0.2401E-02  0.4634E+01
      8.959  0.6869E-02  0.4634E+01
      9.019  0.6852E-01  0.4638E+01
      9.080  0.3515E+00  0.4660E+01
      9.140  0.9223E+00  0.4715E+01
      9.201  0.1259E+01  0.4791E+01
      9.261  0.1008E+01  0.4852E+01
      9.322  0.8796E+00  0.4906E+01
      9.382  0.1217E+01  0.4979E+01
      9.443  0.1348E+01  0.5061E+01
      9.503  0.9939E+00  0.5121E+01
      9.564  0.5310E+00  0.5153E+01
      9.624  0.4079E+00  0.5178E+01
      9.685  0.8026E+00  0.5226E+01
      9.745  0.1269E+01  0.5303E+01
      9.805  0.1336E+01  0.5384E+01
      9.866  0.1155E+01  0.5454E+01
      9.926  0.8561E+00  0.5505E+01
      9.987  0.5131E+00  0.5536E+01
     10.047  0.2351E+00  0.5551E+01
     10.108  0.6987E-01  0.5555E+01
     10.168  0.1154E-01  0.5555E+01
     10.229  0.9840E-03  0.5556E+01
     10.289  0.4205E-04  0.5556E+01
     10.350  0.8897E-06  0.5556E+01
     10.410  0.9259E-08  0.5556E+01
     10.471  0.4719E-10  0.5556E+01
     10.531  0.1174E-12  0.5556E+01
     10.592  0.1813E-15  0.5556E+01
     10.652  0.0000E+00  0.5556E+01
     10.713  0.0000E+00  0.5556E+01
     10.773  0.0000E+00  0.5556E+01
     10.834  0.0000E+00  0.5556E+01
     10.894  0.0000E+00  0.5556E+01
     10.955  0.0000E+00  0.5556E+01
