The current hostname is p0131.ten.osc.edu
The current working directory is /users/PAA0028/sjtuwjx1994
Switching to the working directory /users/PAA0028/sjtuwjx1994/repos/vasp_tutorials/lessons/lesson_02/kpoint_convergence/3
switching compiler chain
module load intel/19.0.5
module load intelmpi/2019.3
VASP_STD_BIN=/users/PAA0028/sjtuwjx1994/usr/local/vasp/vasp.5.4.1/bin/vasp_std
 running on   40 total cores
 distrk:  each k-point on   40 cores,    1 groups
 distr:  one band on    8 cores,    5 groups
 using from now: INCAR     
 vasp.5.4.1 05Feb16 (build Feb 24 2020 14:33:01) complex                        
  
 POSCAR found type information on POSCAR  Si
 POSCAR found :  1 types and       8 ions
 scaLAPACK will be used
 LDA part: xc-table for Pade appr. of Perdew
 POSCAR, INCAR and KPOINTS ok, starting setup
 FFT: planning ...
 WAVECAR not read
 entering main loop
       N       E                     dE             d eps       ncg     rms          rms(c)
DAV:   1     0.345404921142E+02    0.34540E+02   -0.78951E+03   200   0.559E+02
DAV:   2    -0.409987769048E+02   -0.75539E+02   -0.73142E+02   270   0.117E+02
DAV:   3    -0.438623010835E+02   -0.28635E+01   -0.28393E+01   250   0.213E+01    0.113E+01
DAV:   4    -0.433859963037E+02    0.47630E+00   -0.51371E-01   275   0.342E+00    0.668E+00
DAV:   5    -0.431505560351E+02    0.23544E+00   -0.49130E-01   245   0.284E+00    0.399E-01
DAV:   6    -0.431556510235E+02   -0.50950E-02   -0.19882E-02   240   0.623E-01    0.209E-01
DAV:   7    -0.431574241257E+02   -0.17731E-02   -0.31098E-03   235   0.239E-01    0.119E-01
DAV:   8    -0.431575525207E+02   -0.12839E-03   -0.16101E-04   215   0.640E-02    0.637E-02
DAV:   9    -0.431576045015E+02   -0.51981E-04   -0.68521E-05   195   0.421E-02
   1 F= -.43157605E+02 E0= -.43157604E+02  d E =-.431576E+02
 curvature:   0.00 expect dE= 0.000E+00 dE for cont linesearch  0.000E+00
 trial: gam= 0.00000 g(F)=  0.154E-59 g(S)=  0.125E+00 ort = 0.000E+00 (trialstep = 0.100E+01)
 search vector abs. value=  0.125E+00
 bond charge predicted
       N       E                     dE             d eps       ncg     rms          rms(c)
DAV:   1    -0.431713432350E+02   -0.13791E-01   -0.29516E+00   220   0.680E+00
DAV:   2    -0.431779012372E+02   -0.65580E-02   -0.65576E-02   225   0.108E+00
DAV:   3    -0.431779552673E+02   -0.54030E-04   -0.54030E-04   215   0.123E-01    0.196E+00
DAV:   4    -0.431125716291E+02    0.65384E-01   -0.30396E-02   210   0.629E-01    0.972E-01
DAV:   5    -0.430802059999E+02    0.32366E-01   -0.46608E-02   235   0.785E-01    0.326E-01
DAV:   6    -0.430799767901E+02    0.22921E-03   -0.23364E-03   215   0.215E-01    0.152E-01
DAV:   7    -0.430799077691E+02    0.69021E-04   -0.25525E-04   220   0.583E-02
   2 F= -.43079908E+02 E0= -.43079908E+02  d E =0.776967E-01
 trial-energy change:    0.077697  1 .order    0.073382   -0.124780    0.271544
 step:   0.3011(harm=  0.3148)  dis= 0.00000  next Energy=   -43.176272 (dE=-0.187E-01)
 bond charge predicted
       N       E                     dE             d eps       ncg     rms          rms(c)
DAV:   1    -0.432201155199E+02   -0.14014E+00   -0.14904E+00   235   0.495E+00
DAV:   2    -0.432242683158E+02   -0.41528E-02   -0.41528E-02   215   0.801E-01
DAV:   3    -0.432242940071E+02   -0.25691E-04   -0.25691E-04   205   0.863E-02    0.140E+00
DAV:   4    -0.431917417080E+02    0.32552E-01   -0.14911E-02   210   0.450E-01    0.679E-01
DAV:   5    -0.431759034899E+02    0.15838E-01   -0.22415E-02   220   0.554E-01    0.249E-01
DAV:   6    -0.431758834716E+02    0.20018E-04   -0.11482E-03   220   0.154E-01    0.115E-01
DAV:   7    -0.431758117487E+02    0.71723E-04   -0.97893E-05   125   0.381E-02
   3 F= -.43175812E+02 E0= -.43175812E+02  d E =-.182072E-01
 curvature:  -0.16 expect dE=-0.363E-05 dE for cont linesearch -0.363E-05
 trial: gam= 0.00000 g(F)=  0.458E-59 g(S)=  0.231E-04 ort =-0.170E-02 (trialstep = 0.860E+00)
 search vector abs. value=  0.231E-04
 reached required accuracy - stopping structural energy minimisation
 writing wavefunctions

-----------------------
Resources requested:
nodes=1:ppn=40
mem=190440mb
-----------------------
Resources used:
cput=00:01:42
walltime=00:00:04
mem=0.002GB
vmem=0.164GB
-----------------------
Resource units charged (estimate):
0.004 RUs
-----------------------
