       N       E                     dE             d eps       ncg     rms          rms(c)
DAV:   1     0.345404921142E+02    0.34540E+02   -0.78951E+03   200   0.559E+02
DAV:   2    -0.409987769048E+02   -0.75539E+02   -0.73142E+02   270   0.117E+02
DAV:   3    -0.438623010835E+02   -0.28635E+01   -0.28393E+01   250   0.213E+01    0.113E+01
DAV:   4    -0.433859963037E+02    0.47630E+00   -0.51371E-01   275   0.342E+00    0.668E+00
DAV:   5    -0.431505560351E+02    0.23544E+00   -0.49130E-01   245   0.284E+00    0.399E-01
DAV:   6    -0.431556510235E+02   -0.50950E-02   -0.19882E-02   240   0.623E-01    0.209E-01
DAV:   7    -0.431574241257E+02   -0.17731E-02   -0.31098E-03   235   0.239E-01    0.119E-01
DAV:   8    -0.431575525207E+02   -0.12839E-03   -0.16101E-04   215   0.640E-02    0.637E-02
DAV:   9    -0.431576045015E+02   -0.51981E-04   -0.68521E-05   195   0.421E-02
   1 F= -.43157605E+02 E0= -.43157604E+02  d E =-.431576E+02
       N       E                     dE             d eps       ncg     rms          rms(c)
DAV:   1    -0.431713432350E+02   -0.13791E-01   -0.29516E+00   220   0.680E+00
DAV:   2    -0.431779012372E+02   -0.65580E-02   -0.65576E-02   225   0.108E+00
DAV:   3    -0.431779552673E+02   -0.54030E-04   -0.54030E-04   215   0.123E-01    0.196E+00
DAV:   4    -0.431125716291E+02    0.65384E-01   -0.30396E-02   210   0.629E-01    0.972E-01
DAV:   5    -0.430802059999E+02    0.32366E-01   -0.46608E-02   235   0.785E-01    0.326E-01
DAV:   6    -0.430799767901E+02    0.22921E-03   -0.23364E-03   215   0.215E-01    0.152E-01
DAV:   7    -0.430799077691E+02    0.69021E-04   -0.25525E-04   220   0.583E-02
   2 F= -.43079908E+02 E0= -.43079908E+02  d E =0.776967E-01
       N       E                     dE             d eps       ncg     rms          rms(c)
DAV:   1    -0.432201155199E+02   -0.14014E+00   -0.14904E+00   235   0.495E+00
DAV:   2    -0.432242683158E+02   -0.41528E-02   -0.41528E-02   215   0.801E-01
DAV:   3    -0.432242940071E+02   -0.25691E-04   -0.25691E-04   205   0.863E-02    0.140E+00
DAV:   4    -0.431917417080E+02    0.32552E-01   -0.14911E-02   210   0.450E-01    0.679E-01
DAV:   5    -0.431759034899E+02    0.15838E-01   -0.22415E-02   220   0.554E-01    0.249E-01
DAV:   6    -0.431758834716E+02    0.20018E-04   -0.11482E-03   220   0.154E-01    0.115E-01
DAV:   7    -0.431758117487E+02    0.71723E-04   -0.97893E-05   125   0.381E-02
   3 F= -.43175812E+02 E0= -.43175812E+02  d E =-.182072E-01
