<?xml version="1.0" encoding="ISO-8859-1"?>
<modeling>
 <generator>
  <i name="program" type="string">vasp </i>
  <i name="version" type="string">5.4.1  </i>
  <i name="subversion" type="string">05Feb16 (build Feb 24 2020 14:33:01) complex                          parallel </i>
  <i name="platform" type="string">IFC91_ompi </i>
  <i name="date" type="string">2020 02 27 </i>
  <i name="time" type="string">21:38:50 </i>
 </generator>
 <incar>
  <i type="string" name="SYSTEM"> diamond Si</i>
  <i type="int" name="ISTART">     0</i>
  <i type="string" name="PREC">accurate</i>
  <i type="int" name="NSIM">     4</i>
  <i type="int" name="ICHARG">     2</i>
  <i type="int" name="NELM">    60</i>
  <i type="int" name="NELMDL">     3</i>
  <i type="int" name="NELMIN">     0</i>
  <i type="int" name="IBRION">     2</i>
  <i name="EDIFF">      0.00010000</i>
  <i name="EDIFFG">     -0.01000000</i>
  <i type="int" name="NSW">     9</i>
  <i type="int" name="ISIF">     3</i>
  <i name="ENCUT">    240.00000000</i>
  <i name="POTIM">      1.00000000</i>
  <i type="logical" name="LPLANE"> F  </i>
  <i type="int" name="ISMEAR">     0</i>
  <i name="SIGMA">      0.10000000</i>
  <v type="int" name="KPOINT_BSE">    -1     0     0     0</v>
  <i type="int" name="NELM">    60</i>
 </incar>
 <kpoints>
  <generation param="Monkhorst-Pack">
   <v type="int" name="divisions">       3        3        3 </v>
   <v name="usershift">      0.00000000       0.00000000       0.00000000 </v>
   <v name="genvec1">      0.33333333       0.00000000       0.00000000 </v>
   <v name="genvec2">      0.00000000       0.33333333       0.00000000 </v>
   <v name="genvec3">      0.00000000       0.00000000       0.33333333 </v>
   <v name="shift">      0.00000000       0.00000000       0.00000000 </v>
  </generation>
  <varray name="kpointlist" >
   <v>       0.00000000       0.00000000       0.00000000 </v>
   <v>       0.33333333       0.00000000       0.00000000 </v>
   <v>       0.33333333       0.33333333       0.00000000 </v>
   <v>       0.33333333       0.33333333       0.33333333 </v>
  </varray>
  <varray name="weights" >
   <v>       0.03703704 </v>
   <v>       0.22222222 </v>
   <v>       0.44444444 </v>
   <v>       0.29629630 </v>
  </varray>
 </kpoints>
 <parameters>
  <separator name="general" >
   <i type="string" name="SYSTEM">diamond Si</i>
   <i type="logical" name="LCOMPAT"> F  </i>
  </separator>
  <separator name="electronic" >
   <i type="string" name="PREC">accura</i>
   <i name="ENMAX">    240.00000000</i>
   <i name="ENAUG">    322.06900000</i>
   <i name="EDIFF">      0.00010000</i>
   <i type="int" name="IALGO">    38</i>
   <i type="int" name="IWAVPR">    11</i>
   <i type="int" name="NBANDS">    25</i>
   <i name="NELECT">     32.00000000</i>
   <i type="int" name="TURBO">     0</i>
   <i type="int" name="IRESTART">     0</i>
   <i type="int" name="NREBOOT">     0</i>
   <i type="int" name="NMIN">     0</i>
   <i name="EREF">      0.00000000</i>
   <separator name="electronic smearing" >
    <i type="int" name="ISMEAR">     0</i>
    <i name="SIGMA">      0.10000000</i>
    <i name="KSPACING">      0.50000000</i>
    <i type="logical" name="KGAMMA"> T  </i>
   </separator>
   <separator name="electronic projectors" >
    <i type="logical" name="LREAL"> F  </i>
    <v name="ROPT">      0.00000000</v>
    <i type="int" name="LMAXPAW">  -100</i>
    <i type="int" name="LMAXMIX">     2</i>
    <i type="logical" name="NLSPLINE"> F  </i>
   </separator>
   <separator name="electronic startup" >
    <i type="int" name="ISTART">     0</i>
    <i type="int" name="ICHARG">     2</i>
    <i type="int" name="INIWAV">     1</i>
   </separator>
   <separator name="electronic spin" >
    <i type="int" name="ISPIN">     1</i>
    <i type="logical" name="LNONCOLLINEAR"> F  </i>
    <v name="MAGMOM">      1.00000000      1.00000000      1.00000000      1.00000000      1.00000000      1.00000000      1.00000000      1.00000000</v>
    <i name="NUPDOWN">     -1.00000000</i>
    <i type="logical" name="LSORBIT"> F  </i>
    <v name="SAXIS">      0.00000000      0.00000000      1.00000000</v>
    <i type="logical" name="LSPIRAL"> F  </i>
    <v name="QSPIRAL">      0.00000000      0.00000000      0.00000000</v>
    <i type="logical" name="LZEROZ"> F  </i>
   </separator>
   <separator name="electronic exchange-correlation" >
    <i type="logical" name="LASPH"> F  </i>
    <i type="logical" name="LMETAGGA"> F  </i>
   </separator>
   <separator name="electronic convergence" >
    <i type="int" name="NELM">    60</i>
    <i type="int" name="NELMDL">     3</i>
    <i type="int" name="NELMIN">     0</i>
    <i name="ENINI">    240.00000000</i>
    <separator name="electronic convergence detail" >
     <i type="logical" name="LDIAG"> T  </i>
     <i type="logical" name="LSUBROT"> F  </i>
     <i name="WEIMIN">      0.00100000</i>
     <i name="EBREAK">      0.00000100</i>
     <i name="DEPER">      0.30000000</i>
     <i type="int" name="NRMM">     4</i>
     <i name="TIME">      0.40000000</i>
    </separator>
   </separator>
   <separator name="electronic mixer" >
    <i name="AMIX">      0.40000000</i>
    <i name="BMIX">      1.00000000</i>
    <i name="AMIN">      0.10000000</i>
    <i name="AMIX_MAG">      1.60000000</i>
    <i name="BMIX_MAG">      1.00000000</i>
    <separator name="electronic mixer details" >
     <i type="int" name="IMIX">     4</i>
     <i type="logical" name="MIXFIRST"> F  </i>
     <i type="int" name="MAXMIX">   -45</i>
     <i name="WC">    100.00000000</i>
     <i type="int" name="INIMIX">     1</i>
     <i type="int" name="MIXPRE">     1</i>
     <i type="int" name="MREMOVE">     5</i>
    </separator>
   </separator>
   <separator name="electronic dipolcorrection" >
    <i type="logical" name="LDIPOL"> F  </i>
    <i type="logical" name="LMONO"> F  </i>
    <i type="int" name="IDIPOL">     0</i>
    <i name="EPSILON">      1.00000000</i>
    <v name="DIPOL">   -100.00000000   -100.00000000   -100.00000000</v>
    <i name="EFIELD">      0.00000000</i>
   </separator>
  </separator>
  <separator name="grids" >
   <i type="int" name="NGX">    28</i>
   <i type="int" name="NGY">    28</i>
   <i type="int" name="NGZ">    28</i>
   <i type="int" name="NGXF">    56</i>
   <i type="int" name="NGYF">    56</i>
   <i type="int" name="NGZF">    56</i>
   <i type="logical" name="ADDGRID"> F  </i>
  </separator>
  <separator name="ionic" >
   <i type="int" name="NSW">     9</i>
   <i type="int" name="IBRION">     2</i>
   <i type="int" name="ISIF">     3</i>
   <i name="PSTRESS">      0.00000000</i>
   <i name="EDIFFG">     -0.01000000</i>
   <i type="int" name="NFREE">     1</i>
   <i name="POTIM">      1.00000000</i>
   <i name="SMASS">     -3.00000000</i>
   <i name="SCALEE">      1.00000000</i>
  </separator>
  <separator name="ionic md" >
   <i name="TEBEG">      0.00010000</i>
   <i name="TEEND">      0.00010000</i>
   <i type="int" name="NBLOCK">     1</i>
   <i type="int" name="KBLOCK">     9</i>
   <i type="int" name="NPACO">   256</i>
   <i name="APACO">     16.00000000</i>
  </separator>
  <separator name="symmetry" >
   <i type="int" name="ISYM">     2</i>
   <i name="SYMPREC">      0.00001000</i>
  </separator>
  <separator name="dos" >
   <i type="logical" name="LORBIT"> F  </i>
   <v name="RWIGS">     -1.00000000</v>
   <i type="int" name="NEDOS">   301</i>
   <i name="EMIN">     10.00000000</i>
   <i name="EMAX">    -10.00000000</i>
   <i name="EFERMI">      0.00000000</i>
  </separator>
  <separator name="writing" >
   <i type="int" name="NWRITE">     2</i>
   <i type="logical" name="LWAVE"> T  </i>
   <i type="logical" name="LCHARG"> T  </i>
   <i type="logical" name="LPARD"> F  </i>
   <i type="logical" name="LVTOT"> F  </i>
   <i type="logical" name="LVHAR"> F  </i>
   <i type="logical" name="LELF"> F  </i>
   <i type="logical" name="LOPTICS"> F  </i>
   <v name="STM">      0.00000000      0.00000000      0.00000000      0.00000000      0.00000000      0.00000000      0.00000000</v>
  </separator>
  <separator name="performance" >
   <i type="int" name="NPAR">     5</i>
   <i type="int" name="NSIM">     4</i>
   <i type="int" name="NBLK">    -1</i>
   <i type="logical" name="LPLANE"> F  </i>
   <i type="logical" name="LSCALAPACK"> T  </i>
   <i type="logical" name="LSCAAWARE"> F  </i>
   <i type="logical" name="LSCALU"> F  </i>
   <i type="logical" name="LASYNC"> F  </i>
   <i type="logical" name="LORBITALREAL"> F  </i>
  </separator>
  <separator name="miscellaneous" >
   <i type="int" name="IDIOT">     3</i>
   <i type="logical" name="LMUSIC"> F  </i>
   <v name="POMASS">     28.08500000</v>
   <v name="DARWINR">      0.00000000</v>
   <v name="DARWINV">      1.00000000</v>
   <i type="logical" name="LCORR"> T  </i>
  </separator>
  <i type="logical" name="GGA_COMPAT"> T  </i>
  <i type="logical" name="LBERRY"> F  </i>
  <i type="int" name="ICORELEVEL">     0</i>
  <i type="logical" name="LDAU"> F  </i>
  <i type="int" name="I_CONSTRAINED_M">     0</i>
  <separator name="electronic exchange-correlation" >
   <i type="string" name="GGA">--</i>
   <i type="int" name="VOSKOWN">     0</i>
   <i type="logical" name="LHFCALC"> F  </i>
   <i type="string" name="PRECFOCK"></i>
   <i type="logical" name="LSYMGRAD"> F  </i>
   <i type="logical" name="LHFONE"> F  </i>
   <i type="logical" name="LRHFCALC"> F  </i>
   <i type="logical" name="LTHOMAS"> F  </i>
   <i type="logical" name="LMODELHF"> F  </i>
   <i name="ENCUT4O">     -1.00000000</i>
   <i type="int" name="EXXOEP">     0</i>
   <i type="int" name="FOURORBIT">     0</i>
   <i name="AEXX">      0.00000000</i>
   <i name="HFALPHA">      0.00000000</i>
   <i name="MCALPHA">      0.00000000</i>
   <i name="ALDAX">      1.00000000</i>
   <i name="AGGAX">      1.00000000</i>
   <i name="ALDAC">      1.00000000</i>
   <i name="AGGAC">      1.00000000</i>
   <i type="int" name="NKREDX">     1</i>
   <i type="int" name="NKREDY">     1</i>
   <i type="int" name="NKREDZ">     1</i>
   <i type="logical" name="SHIFTRED"> F  </i>
   <i type="logical" name="ODDONLY"> F  </i>
   <i type="logical" name="EVENONLY"> F  </i>
   <i type="int" name="LMAXFOCK">     0</i>
   <i type="int" name="NMAXFOCKAE">     0</i>
   <i type="logical" name="LFOCKAEDFT"> F  </i>
   <i name="HFSCREEN">      0.00000000</i>
   <i name="HFSCREENC">      0.00000000</i>
   <i type="int" name="NBANDSGWLOW">     0</i>
  </separator>
  <separator name="vdW DFT" >
   <i type="logical" name="LUSE_VDW"> F  </i>
   <i name="Zab_VDW">     -0.84910000</i>
   <i name="PARAM1">      0.12340000</i>
   <i name="PARAM2">      1.00000000</i>
   <i name="PARAM3">      0.00000000</i>
  </separator>
  <separator name="model GW" >
   <i type="int" name="MODEL_GW">     0</i>
   <i name="MODEL_EPS0">     12.01436085</i>
   <i name="MODEL_ALPHA">      1.00000000</i>
  </separator>
  <separator name="linear response parameters" >
   <i type="logical" name="LEPSILON"> F  </i>
   <i type="logical" name="LRPA"> F  </i>
   <i type="logical" name="LNABLA"> F  </i>
   <i type="logical" name="LVEL"> F  </i>
   <i type="int" name="KINTER">     0</i>
   <i name="CSHIFT">      0.10000000</i>
   <i name="OMEGAMAX">     -1.00000000</i>
   <i name="DEG_THRESHOLD">      0.00200000</i>
  </separator>
  <separator name="orbital magnetization" >
   <i type="logical" name="NUCIND"> F  </i>
   <v name="MAGPOS">      0.00000000      0.00000000      0.00000000</v>
   <i type="logical" name="LNICSALL"> T  </i>
   <i type="logical" name="ORBITALMAG"> F  </i>
   <i type="logical" name="LMAGBLOCH"> F  </i>
   <i type="logical" name="LCHIMAG"> F  </i>
   <i type="logical" name="LGAUGE"> T  </i>
   <i type="int" name="MAGATOM">     0</i>
   <v name="MAGDIPOL">      0.00000000      0.00000000      0.00000000</v>
   <v name="AVECCONST">      0.00000000      0.00000000      0.00000000</v>
  </separator>
  <separator name="response functions" >
   <i type="logical" name="LADDER"> F  </i>
   <i type="logical" name="LFXC"> F  </i>
   <i type="logical" name="LHARTREE"> T  </i>
   <i type="int" name="IBSE">     0</i>
   <v type="int" name="KPOINT">    -1     0     0     0</v>
   <i type="logical" name="LTCTE"> F  </i>
   <i type="logical" name="LTETE"> F  </i>
   <i type="logical" name="LTRIPLET"> F  </i>
   <i type="logical" name="LFXCEPS"> F  </i>
   <i type="logical" name="LFXHEG"> F  </i>
   <i type="int" name="NATURALO">     0</i>
   <i type="logical" name="L2ORDER"> F  </i>
   <i type="logical" name="LUSEW"> F  </i>
   <i name="ENCUTGW">     -2.00000000</i>
   <i name="ENCUTGWSOFT">     -2.00000000</i>
   <i name="ENCUTLF">     -1.00000000</i>
   <i type="int" name="LMAXMP2">    -1</i>
   <i name="SCISSOR">      0.00000000</i>
   <i type="int" name="NOMEGA">     0</i>
   <i type="int" name="NOMEGAR">     0</i>
   <i type="int" name="NBANDSGW">    -1</i>
   <i type="int" name="NBANDSO">    -1</i>
   <i type="int" name="NBANDSV">    -1</i>
   <i type="int" name="NELM">    60</i>
   <i type="int" name="NELMHF">     1</i>
   <i type="int" name="DIM">     3</i>
   <i type="int" name="ANTIRES">     0</i>
   <i name="OMEGAMAX">    -30.00000000</i>
   <i name="OMEGAMIN">    -30.00000000</i>
   <i name="OMEGATL">   -200.00000000</i>
   <i type="int" name="OMEGAGRID">     0</i>
   <i name="CSHIFT">     -0.10000000</i>
   <i type="logical" name="SELFENERGY"> F  </i>
   <i type="logical" name="LSPECTRAL"> F  </i>
   <i type="logical" name="LSPECTRALGW"> F  </i>
   <i type="logical" name="LSINGLES"> F  </i>
   <i type="logical" name="LFERMIGW"> F  </i>
   <i type="logical" name="ODDONLYGW"> F  </i>
   <i type="logical" name="EVENONLYGW"> F  </i>
   <i type="int" name="NKREDLFX">     1</i>
   <i type="int" name="NKREDLFY">     1</i>
   <i type="int" name="NKREDLFZ">     1</i>
   <i type="int" name="MAXMEM">  1800</i>
   <i type="int" name="TELESCOPE">     0</i>
   <i type="int" name="TAUPAR">     1</i>
   <i type="int" name="OMEGAPAR">    -1</i>
   <i name="LAMBDA">      1.00000000</i>
  </separator>
  <separator name="External order field" >
   <i name="OFIELD_KAPPA">      0.00000000</i>
   <v name="OFIELD_K">      0.00000000      0.00000000      0.00000000</v>
   <i name="OFIELD_Q6_NEAR">      0.00000000</i>
   <i name="OFIELD_Q6_FAR">      0.00000000</i>
   <i name="OFIELD_A">      0.00000000</i>
  </separator>
 </parameters>
 <atominfo>
  <atoms>       8 </atoms>
  <types>       1 </types>
  <array name="atoms" >
   <dimension dim="1">ion</dimension>
   <field type="string">element</field>
   <field type="int">atomtype</field>
   <set>
    <rc><c>Si</c><c>   1</c></rc>
    <rc><c>Si</c><c>   1</c></rc>
    <rc><c>Si</c><c>   1</c></rc>
    <rc><c>Si</c><c>   1</c></rc>
    <rc><c>Si</c><c>   1</c></rc>
    <rc><c>Si</c><c>   1</c></rc>
    <rc><c>Si</c><c>   1</c></rc>
    <rc><c>Si</c><c>   1</c></rc>
   </set>
  </array>
  <array name="atomtypes" >
   <dimension dim="1">type</dimension>
   <field type="int">atomspertype</field>
   <field type="string">element</field>
   <field>mass</field>
   <field>valence</field>
   <field type="string">pseudopotential</field>
   <set>
    <rc><c>   8</c><c>Si</c><c>     28.08500000</c><c>      4.00000000</c><c>  PAW_PBE Si 05Jan2001                  </c></rc>
   </set>
  </array>
 </atominfo>
 <structure name="initialpos" >
  <crystal>
   <varray name="basis" >
    <v>       5.43100000       0.00000000       0.00000000 </v>
    <v>       0.00000000       5.43100000       0.00000000 </v>
    <v>       0.00000000       0.00000000       5.43100000 </v>
   </varray>
   <i name="volume">    160.19147799 </i>
   <varray name="rec_basis" >
    <v>       0.18412815       0.00000000       0.00000000 </v>
    <v>       0.00000000       0.18412815       0.00000000 </v>
    <v>       0.00000000       0.00000000       0.18412815 </v>
   </varray>
  </crystal>
  <varray name="positions" >
   <v>       0.00000000       0.00000000       0.00000000 </v>
   <v>       0.00000000       0.50000000       0.50000000 </v>
   <v>       0.50000000       0.00000000       0.50000000 </v>
   <v>       0.50000000       0.50000000       0.00000000 </v>
   <v>       0.25000000       0.25000000       0.25000000 </v>
   <v>       0.75000000       0.75000000       0.25000000 </v>
   <v>       0.75000000       0.25000000       0.75000000 </v>
   <v>       0.25000000       0.75000000       0.75000000 </v>
  </varray>
 </structure>
 <calculation>
  <scstep>
   <time name="dav">    0.20    0.20</time>
   <time name="total">    0.21    0.21</time>
   <energy>
    <i name="alphaZ">     13.44915721 </i>
    <i name="ewald">   -914.08579262 </i>
    <i name="hartreedc">    -44.03749844 </i>
    <i name="XCdc">    -74.41614067 </i>
    <i name="pawpsdc">    704.99039692 </i>
    <i name="pawaedc">   -564.24414232 </i>
    <i name="eentropy">     -0.02360367 </i>
    <i name="bandstr">     88.42190308 </i>
    <i name="atom">    824.48621262 </i>
    <i name="e_fr_energy">     34.54049211 </i>
    <i name="e_wo_entrp">     34.56409578 </i>
    <i name="e_0_energy">     34.55229395 </i>
   </energy>
  </scstep>
  <scstep>
   <time name="dav">    0.04    0.04</time>
   <time name="total">    0.04    0.05</time>
   <energy>
    <i name="e_fr_energy">    -40.99877690 </i>
    <i name="e_wo_entrp">    -40.99877609 </i>
    <i name="e_0_energy">    -40.99877650 </i>
   </energy>
  </scstep>
  <scstep>
   <time name="dav">    0.03    0.03</time>
   <time name="total">    0.04    0.04</time>
   <energy>
    <i name="e_fr_energy">    -43.86230108 </i>
    <i name="e_wo_entrp">    -43.86230108 </i>
    <i name="e_0_energy">    -43.86230108 </i>
   </energy>
  </scstep>
  <scstep>
   <time name="dav">    0.04    0.04</time>
   <time name="total">    0.05    0.05</time>
   <energy>
    <i name="e_fr_energy">    -43.38599630 </i>
    <i name="e_wo_entrp">    -43.38599630 </i>
    <i name="e_0_energy">    -43.38599630 </i>
   </energy>
  </scstep>
  <scstep>
   <time name="dav">    0.03    0.03</time>
   <time name="total">    0.04    0.05</time>
   <energy>
    <i name="e_fr_energy">    -43.15055604 </i>
    <i name="e_wo_entrp">    -43.15055587 </i>
    <i name="e_0_energy">    -43.15055595 </i>
   </energy>
  </scstep>
  <scstep>
   <time name="dav">    0.03    0.03</time>
   <time name="total">    0.04    0.05</time>
   <energy>
    <i name="e_fr_energy">    -43.15565102 </i>
    <i name="e_wo_entrp">    -43.15565091 </i>
    <i name="e_0_energy">    -43.15565097 </i>
   </energy>
  </scstep>
  <scstep>
   <time name="dav">    0.03    0.03</time>
   <time name="total">    0.04    0.05</time>
   <energy>
    <i name="e_fr_energy">    -43.15742413 </i>
    <i name="e_wo_entrp">    -43.15742406 </i>
    <i name="e_0_energy">    -43.15742409 </i>
   </energy>
  </scstep>
  <scstep>
   <time name="dav">    0.03    0.03</time>
   <time name="total">    0.04    0.04</time>
   <energy>
    <i name="e_fr_energy">    -43.15755252 </i>
    <i name="e_wo_entrp">    -43.15755246 </i>
    <i name="e_0_energy">    -43.15755249 </i>
   </energy>
  </scstep>
  <scstep>
   <time name="dav">    0.03    0.03</time>
   <time name="total">    0.04    0.04</time>
   <energy>
    <i name="alphaZ">     13.44915721 </i>
    <i name="ewald">   -914.08579262 </i>
    <i name="hartreedc">    -59.96777062 </i>
    <i name="XCdc">    -71.77959026 </i>
    <i name="pawpsdc">   4247.93097209 </i>
    <i name="pawaedc">  -4108.11999928 </i>
    <i name="eentropy">     -0.00000006 </i>
    <i name="bandstr">     24.92920643 </i>
    <i name="atom">    824.48621262 </i>
    <i name="e_fr_energy">    -43.15760450 </i>
    <i name="e_wo_entrp">    -43.15760444 </i>
    <i name="e_0_energy">    -43.15760447 </i>
   </energy>
  </scstep>
  <structure>
   <crystal>
    <varray name="basis" >
     <v>       5.43100000       0.00000000       0.00000000 </v>
     <v>       0.00000000       5.43100000       0.00000000 </v>
     <v>       0.00000000       0.00000000       5.43100000 </v>
    </varray>
    <i name="volume">    160.19147799 </i>
    <varray name="rec_basis" >
     <v>       0.18412815       0.00000000       0.00000000 </v>
     <v>       0.00000000       0.18412815       0.00000000 </v>
     <v>       0.00000000       0.00000000       0.18412815 </v>
    </varray>
   </crystal>
   <varray name="positions" >
    <v>       0.00000000       0.00000000       0.00000000 </v>
    <v>       0.00000000       0.50000000       0.50000000 </v>
    <v>       0.50000000       0.00000000       0.50000000 </v>
    <v>       0.50000000       0.50000000       0.00000000 </v>
    <v>       0.25000000       0.25000000       0.25000000 </v>
    <v>       0.75000000       0.75000000       0.25000000 </v>
    <v>       0.75000000       0.25000000       0.75000000 </v>
    <v>       0.25000000       0.75000000       0.75000000 </v>
   </varray>
  </structure>
  <varray name="forces" >
   <v>      -0.00000000      -0.00000000      -0.00000000 </v>
   <v>       0.00000000      -0.00000000      -0.00000000 </v>
   <v>      -0.00000000       0.00000000      -0.00000000 </v>
   <v>      -0.00000000      -0.00000000      -0.00000000 </v>
   <v>       0.00000000       0.00000000       0.00000000 </v>
   <v>       0.00000000       0.00000000       0.00000000 </v>
   <v>       0.00000000       0.00000000       0.00000000 </v>
   <v>       0.00000000      -0.00000000       0.00000000 </v>
  </varray>
  <varray name="stress" >
   <v>      18.57365444      -0.00000000      -0.00000000 </v>
   <v>       0.00000000      18.57365444       0.00000000 </v>
   <v>       0.00000000      -0.00000000      18.57365444 </v>
  </varray>
  <energy>
   <i name="e_fr_energy">    -43.15760450 </i>
   <i name="e_wo_entrp">    -43.15760447 </i>
   <i name="e_0_energy">     -0.00000006 </i>
  </energy>
  <time name="totalsc">    0.71    0.76</time>
 </calculation>
 <calculation>
  <scstep>
   <time name="dav">    0.03    0.03</time>
   <time name="total">    0.04    0.04</time>
   <energy>
    <i name="alphaZ">     12.58449740 </i>
    <i name="ewald">   -894.06115729 </i>
    <i name="hartreedc">    -58.65526838 </i>
    <i name="XCdc">    -73.08131841 </i>
    <i name="pawpsdc">   4251.89952841 </i>
    <i name="pawaedc">  -4112.08802763 </i>
    <i name="eentropy">     -0.00000000 </i>
    <i name="bandstr">      5.74419004 </i>
    <i name="atom">    824.48621262 </i>
    <i name="e_fr_energy">    -43.17134323 </i>
    <i name="e_wo_entrp">    -43.17134323 </i>
    <i name="e_0_energy">    -43.17134323 </i>
   </energy>
  </scstep>
  <scstep>
   <time name="dav">    0.03    0.03</time>
   <time name="total">    0.03    0.03</time>
   <energy>
    <i name="e_fr_energy">    -43.17790124 </i>
    <i name="e_wo_entrp">    -43.17790124 </i>
    <i name="e_0_energy">    -43.17790124 </i>
   </energy>
  </scstep>
  <scstep>
   <time name="dav">    0.03    0.03</time>
   <time name="total">    0.04    0.04</time>
   <energy>
    <i name="e_fr_energy">    -43.17795527 </i>
    <i name="e_wo_entrp">    -43.17795527 </i>
    <i name="e_0_energy">    -43.17795527 </i>
   </energy>
  </scstep>
  <scstep>
   <time name="dav">    0.03    0.03</time>
   <time name="total">    0.04    0.04</time>
   <energy>
    <i name="e_fr_energy">    -43.11257163 </i>
    <i name="e_wo_entrp">    -43.11257163 </i>
    <i name="e_0_energy">    -43.11257163 </i>
   </energy>
  </scstep>
  <scstep>
   <time name="dav">    0.03    0.03</time>
   <time name="total">    0.04    0.05</time>
   <energy>
    <i name="e_fr_energy">    -43.08020600 </i>
    <i name="e_wo_entrp">    -43.08020600 </i>
    <i name="e_0_energy">    -43.08020600 </i>
   </energy>
  </scstep>
  <scstep>
   <time name="dav">    0.03    0.03</time>
   <time name="total">    0.04    0.04</time>
   <energy>
    <i name="e_fr_energy">    -43.07997679 </i>
    <i name="e_wo_entrp">    -43.07997679 </i>
    <i name="e_0_energy">    -43.07997679 </i>
   </energy>
  </scstep>
  <scstep>
   <time name="dav">    0.03    0.03</time>
   <time name="total">    0.04    0.04</time>
   <energy>
    <i name="alphaZ">     12.58449740 </i>
    <i name="ewald">   -894.06115729 </i>
    <i name="hartreedc">    -63.15143087 </i>
    <i name="XCdc">    -72.98261126 </i>
    <i name="pawpsdc">   3791.27751518 </i>
    <i name="pawaedc">  -3651.24266079 </i>
    <i name="eentropy">     -0.00000000 </i>
    <i name="bandstr">     10.00972725 </i>
    <i name="atom">    824.48621262 </i>
    <i name="e_fr_energy">    -43.07990777 </i>
    <i name="e_wo_entrp">    -43.07990777 </i>
    <i name="e_0_energy">    -43.07990777 </i>
   </energy>
  </scstep>
  <structure>
   <crystal>
    <varray name="basis" >
     <v>       5.55264022      -0.00000000      -0.00000000 </v>
     <v>       0.00000000       5.55264022       0.00000000 </v>
     <v>       0.00000000      -0.00000000       5.55264022 </v>
    </varray>
    <i name="volume">    171.19796707 </i>
    <varray name="rec_basis" >
     <v>       0.18009451      -0.00000000      -0.00000000 </v>
     <v>       0.00000000       0.18009451       0.00000000 </v>
     <v>       0.00000000      -0.00000000       0.18009451 </v>
    </varray>
   </crystal>
   <varray name="positions" >
    <v>      -0.00000000      -0.00000000      -0.00000000 </v>
    <v>       0.00000000       0.50000000       0.50000000 </v>
    <v>       0.50000000       0.00000000       0.50000000 </v>
    <v>       0.50000000       0.50000000      -0.00000000 </v>
    <v>       0.25000000       0.25000000       0.25000000 </v>
    <v>       0.75000000       0.75000000       0.25000000 </v>
    <v>       0.75000000       0.25000000       0.75000000 </v>
    <v>       0.25000000       0.75000000       0.75000000 </v>
   </varray>
  </structure>
  <varray name="forces" >
   <v>       0.00000000       0.00000000       0.00000000 </v>
   <v>      -0.00000000      -0.00000000       0.00000000 </v>
   <v>      -0.00000000      -0.00000000      -0.00000000 </v>
   <v>       0.00000000      -0.00000000      -0.00000000 </v>
   <v>      -0.00000000       0.00000000       0.00000000 </v>
   <v>      -0.00000000      -0.00000000      -0.00000000 </v>
   <v>       0.00000000       0.00000000      -0.00000000 </v>
   <v>       0.00000000       0.00000000       0.00000000 </v>
  </varray>
  <varray name="stress" >
   <v>     -37.82103407      -0.00000000       0.00000000 </v>
   <v>      -0.00000000     -37.82103407       0.00000000 </v>
   <v>       0.00000000       0.00000000     -37.82103407 </v>
  </varray>
  <energy>
   <i name="e_fr_energy">    -43.07990777 </i>
   <i name="e_wo_entrp">    -43.07990777 </i>
   <i name="e_0_energy">     -0.00000000 </i>
  </energy>
  <time name="totalsc">    0.30    0.32</time>
 </calculation>
 <calculation>
  <scstep>
   <time name="dav">    0.04    0.04</time>
   <time name="total">    0.05    0.05</time>
   <energy>
    <i name="alphaZ">     13.18069130 </i>
    <i name="ewald">   -907.96268071 </i>
    <i name="hartreedc">    -64.14854330 </i>
    <i name="XCdc">    -72.08933986 </i>
    <i name="pawpsdc">   3819.39241179 </i>
    <i name="pawaedc">  -3679.36185522 </i>
    <i name="eentropy">     -0.00000022 </i>
    <i name="bandstr">     23.28298807 </i>
    <i name="atom">    824.48621262 </i>
    <i name="e_fr_energy">    -43.22011552 </i>
    <i name="e_wo_entrp">    -43.22011530 </i>
    <i name="e_0_energy">    -43.22011541 </i>
   </energy>
  </scstep>
  <scstep>
   <time name="dav">    0.04    0.04</time>
   <time name="total">    0.04    0.04</time>
   <energy>
    <i name="e_fr_energy">    -43.22426832 </i>
    <i name="e_wo_entrp">    -43.22426809 </i>
    <i name="e_0_energy">    -43.22426821 </i>
   </energy>
  </scstep>
  <scstep>
   <time name="dav">    0.03    0.03</time>
   <time name="total">    0.04    0.04</time>
   <energy>
    <i name="e_fr_energy">    -43.22429401 </i>
    <i name="e_wo_entrp">    -43.22429379 </i>
    <i name="e_0_energy">    -43.22429390 </i>
   </energy>
  </scstep>
  <scstep>
   <time name="dav">    0.03    0.03</time>
   <time name="total">    0.04    0.04</time>
   <energy>
    <i name="e_fr_energy">    -43.19174171 </i>
    <i name="e_wo_entrp">    -43.19174164 </i>
    <i name="e_0_energy">    -43.19174167 </i>
   </energy>
  </scstep>
  <scstep>
   <time name="dav">    0.03    0.03</time>
   <time name="total">    0.04    0.04</time>
   <energy>
    <i name="e_fr_energy">    -43.17590349 </i>
    <i name="e_wo_entrp">    -43.17590347 </i>
    <i name="e_0_energy">    -43.17590348 </i>
   </energy>
  </scstep>
  <scstep>
   <time name="dav">    0.03    0.03</time>
   <time name="total">    0.04    0.04</time>
   <energy>
    <i name="e_fr_energy">    -43.17588347 </i>
    <i name="e_wo_entrp">    -43.17588345 </i>
    <i name="e_0_energy">    -43.17588346 </i>
   </energy>
  </scstep>
  <scstep>
   <time name="dav">    0.02    0.02</time>
   <time name="total">    0.03    0.03</time>
   <energy>
    <i name="alphaZ">     13.18069130 </i>
    <i name="ewald">   -907.96268071 </i>
    <i name="hartreedc">    -60.92098228 </i>
    <i name="XCdc">    -72.14669026 </i>
    <i name="pawpsdc">   4125.71355916 </i>
    <i name="pawaedc">  -3985.83267904 </i>
    <i name="eentropy">     -0.00000002 </i>
    <i name="bandstr">     20.30675747 </i>
    <i name="atom">    824.48621262 </i>
    <i name="e_fr_energy">    -43.17581175 </i>
    <i name="e_wo_entrp">    -43.17581173 </i>
    <i name="e_0_energy">    -43.17581174 </i>
   </energy>
  </scstep>
  <structure>
   <crystal>
    <varray name="basis" >
     <v>       5.46762554      -0.00000000      -0.00000000 </v>
     <v>       0.00000000       5.46762554       0.00000000 </v>
     <v>       0.00000000      -0.00000000       5.46762554 </v>
    </varray>
    <i name="volume">    163.45427730 </i>
    <varray name="rec_basis" >
     <v>       0.18289475      -0.00000000      -0.00000000 </v>
     <v>       0.00000000       0.18289475       0.00000000 </v>
     <v>       0.00000000      -0.00000000       0.18289475 </v>
    </varray>
   </crystal>
   <varray name="positions" >
    <v>      -0.00000000      -0.00000000      -0.00000000 </v>
    <v>       0.00000000       0.50000000       0.50000000 </v>
    <v>       0.50000000       0.00000000       0.50000000 </v>
    <v>       0.50000000       0.50000000      -0.00000000 </v>
    <v>       0.25000000       0.25000000       0.25000000 </v>
    <v>       0.75000000       0.75000000       0.25000000 </v>
    <v>       0.75000000       0.25000000       0.75000000 </v>
    <v>       0.25000000       0.75000000       0.75000000 </v>
   </varray>
  </structure>
  <varray name="forces" >
   <v>      -0.00000000       0.00000000      -0.00000000 </v>
   <v>      -0.00000000       0.00000000      -0.00000000 </v>
   <v>      -0.00000000      -0.00000000      -0.00000000 </v>
   <v>      -0.00000000       0.00000000      -0.00000000 </v>
   <v>       0.00000000      -0.00000000       0.00000000 </v>
   <v>       0.00000000      -0.00000000       0.00000000 </v>
   <v>       0.00000000       0.00000000       0.00000000 </v>
   <v>       0.00000000       0.00000000       0.00000000 </v>
  </varray>
  <varray name="stress" >
   <v>      -0.24758605       0.00000000      -0.00000000 </v>
   <v>       0.00000000      -0.24758605      -0.00000000 </v>
   <v>       0.00000000       0.00000000      -0.24758605 </v>
  </varray>
  <energy>
   <i name="e_fr_energy">    -43.17581175 </i>
   <i name="e_wo_entrp">    -43.17581174 </i>
   <i name="e_0_energy">     -0.00000002 </i>
  </energy>
  <time name="totalsc">    0.31    0.34</time>
  <eigenvalues>
   <array>
    <dimension dim="1">band</dimension>
    <dimension dim="2">kpoint</dimension>
    <dimension dim="3">spin</dimension>
    <field>eigene</field>
    <field>occ</field>
    <set>
     <set comment="spin 1">
      <set comment="kpoint 1">
       <r>   -6.1886    1.0000 </r>
       <r>   -2.1165    1.0000 </r>
       <r>   -2.1165    1.0000 </r>
       <r>   -2.1165    1.0000 </r>
       <r>   -2.1165    1.0000 </r>
       <r>   -2.1165    1.0000 </r>
       <r>   -2.1165    1.0000 </r>
       <r>    2.8366    1.0000 </r>
       <r>    2.8366    1.0000 </r>
       <r>    2.8366    1.0000 </r>
       <r>    2.8366    1.0000 </r>
       <r>    2.8366    1.0000 </r>
       <r>    2.8366    1.0000 </r>
       <r>    5.6460    1.0000 </r>
       <r>    5.6460    1.0000 </r>
       <r>    5.6460    1.0000 </r>
       <r>    6.3989    0.0000 </r>
       <r>    6.3989    0.0000 </r>
       <r>    6.3989    0.0000 </r>
       <r>    6.3989    0.0000 </r>
       <r>    6.3989    0.0000 </r>
       <r>    6.3989    0.0000 </r>
       <r>    8.1994    0.0000 </r>
       <r>    8.1994    0.0000 </r>
       <r>    8.1994    0.0000 </r>
      </set>
      <set comment="kpoint 2">
       <r>   -5.7130    1.0000 </r>
       <r>   -4.3171    1.0000 </r>
       <r>   -2.0028    1.0000 </r>
       <r>   -2.0028    1.0000 </r>
       <r>   -2.0028    1.0000 </r>
       <r>   -2.0028    1.0000 </r>
       <r>    0.6439    1.0000 </r>
       <r>    2.0699    1.0000 </r>
       <r>    2.0699    1.0000 </r>
       <r>    2.0699    1.0000 </r>
       <r>    2.0699    1.0000 </r>
       <r>    3.2659    1.0000 </r>
       <r>    3.2659    1.0000 </r>
       <r>    3.5855    1.0000 </r>
       <r>    4.4733    1.0000 </r>
       <r>    4.4733    1.0000 </r>
       <r>    6.4043    0.0000 </r>
       <r>    7.3564    0.0000 </r>
       <r>    7.6736    0.0000 </r>
       <r>    8.4024    0.0000 </r>
       <r>    8.4024    0.0000 </r>
       <r>    8.4024    0.0000 </r>
       <r>    8.4024    0.0000 </r>
       <r>    9.8599    0.0000 </r>
       <r>    9.9545    0.0000 </r>
      </set>
      <set comment="kpoint 3">
       <r>   -5.2560    1.0000 </r>
       <r>   -3.9408    1.0000 </r>
       <r>   -3.9408    1.0000 </r>
       <r>   -2.9889    1.0000 </r>
       <r>   -1.0824    1.0000 </r>
       <r>    0.0252    1.0000 </r>
       <r>    0.0252    1.0000 </r>
       <r>    1.3178    1.0000 </r>
       <r>    1.9392    1.0000 </r>
       <r>    2.1406    1.0000 </r>
       <r>    2.1406    1.0000 </r>
       <r>    3.2771    1.0000 </r>
       <r>    3.3902    1.0000 </r>
       <r>    3.3902    1.0000 </r>
       <r>    3.5636    1.0000 </r>
       <r>    5.0842    1.0000 </r>
       <r>    7.2359    0.0000 </r>
       <r>    8.4956    0.0000 </r>
       <r>    8.4956    0.0000 </r>
       <r>    8.6252    0.0000 </r>
       <r>    9.1829    0.0000 </r>
       <r>    9.3762    0.0000 </r>
       <r>    9.3762    0.0000 </r>
       <r>    9.4722    0.0000 </r>
       <r>    9.8323    0.0000 </r>
      </set>
      <set comment="kpoint 4">
       <r>   -4.8376    1.0000 </r>
       <r>   -3.7478    1.0000 </r>
       <r>   -3.7478    1.0000 </r>
       <r>   -3.7478    1.0000 </r>
       <r>   -0.8943    1.0000 </r>
       <r>   -0.8943    1.0000 </r>
       <r>   -0.8943    1.0000 </r>
       <r>    0.3617    1.0000 </r>
       <r>    2.9025    1.0000 </r>
       <r>    2.9025    1.0000 </r>
       <r>    2.9025    1.0000 </r>
       <r>    3.8943    1.0000 </r>
       <r>    3.8943    1.0000 </r>
       <r>    3.8943    1.0000 </r>
       <r>    4.6544    1.0000 </r>
       <r>    4.6544    1.0000 </r>
       <r>    7.3391    0.0000 </r>
       <r>    7.6888    0.0000 </r>
       <r>    7.6888    0.0000 </r>
       <r>    7.6888    0.0000 </r>
       <r>    9.1555    0.0000 </r>
       <r>    9.1555    0.0000 </r>
       <r>    9.7171    0.0000 </r>
       <r>    9.7171    0.0000 </r>
       <r>    9.7171    0.0000 </r>
      </set>
     </set>
    </set>
   </array>
  </eigenvalues>
  <separator name="orbital magnetization" >
   <v name="MAGDIPOLOUT">      0.00000000      0.00000000      0.00000000</v>
  </separator>
  <dos>
   <i name="efermi">      6.01478561 </i>
   <total>
    <array>
     <dimension dim="1">gridpoints</dimension>
     <dimension dim="2">spin</dimension>
     <field>energy</field>
     <field>total</field>
     <field>integrated</field>
     <set>
      <set comment="spin 1">
       <r>    -7.1886     0.0000     0.0000 </r>
       <r>    -7.1282     0.0000     0.0000 </r>
       <r>    -7.0677     0.0000     0.0000 </r>
       <r>    -7.0072     0.0000     0.0000 </r>
       <r>    -6.9467     0.0000     0.0000 </r>
       <r>    -6.8862     0.0000     0.0000 </r>
       <r>    -6.8258     0.0000     0.0000 </r>
       <r>    -6.7653     0.0000     0.0000 </r>
       <r>    -6.7048     0.0000     0.0000 </r>
       <r>    -6.6443     0.0000     0.0000 </r>
       <r>    -6.5839     0.0000     0.0000 </r>
       <r>    -6.5234     0.0000     0.0000 </r>
       <r>    -6.4629     0.0001     0.0000 </r>
       <r>    -6.4024     0.0015     0.0001 </r>
       <r>    -6.3420     0.0169     0.0011 </r>
       <r>    -6.2815     0.0974     0.0070 </r>
       <r>    -6.2210     0.2805     0.0240 </r>
       <r>    -6.1605     0.4054     0.0485 </r>
       <r>    -6.1000     0.2944     0.0663 </r>
       <r>    -6.0396     0.1073     0.0728 </r>
       <r>    -5.9791     0.0202     0.0740 </r>
       <r>    -5.9186     0.0145     0.0749 </r>
       <r>    -5.8581     0.1339     0.0830 </r>
       <r>    -5.7977     0.7015     0.1254 </r>
       <r>    -5.7372     1.8407     0.2367 </r>
       <r>    -5.6767     2.4249     0.3834 </r>
       <r>    -5.6162     1.6052     0.4804 </r>
       <r>    -5.5558     0.5334     0.5127 </r>
       <r>    -5.4953     0.0937     0.5184 </r>
       <r>    -5.4348     0.0862     0.5236 </r>
       <r>    -5.3743     0.6088     0.5604 </r>
       <r>    -5.3138     2.3446     0.7022 </r>
       <r>    -5.2534     4.5295     0.9761 </r>
       <r>    -5.1929     4.3961     1.2420 </r>
       <r>    -5.1324     2.1434     1.3716 </r>
       <r>    -5.0719     0.5281     1.4036 </r>
       <r>    -5.0115     0.1278     1.4113 </r>
       <r>    -4.9510     0.4694     1.4397 </r>
       <r>    -4.8905     1.6942     1.5422 </r>
       <r>    -4.8300     3.0918     1.7291 </r>
       <r>    -4.7695     2.8350     1.9006 </r>
       <r>    -4.7091     1.3057     1.9796 </r>
       <r>    -4.6486     0.3014     1.9978 </r>
       <r>    -4.5881     0.0352     1.9999 </r>
       <r>    -4.5276     0.0122     2.0006 </r>
       <r>    -4.4672     0.1136     2.0075 </r>
       <r>    -4.4067     0.6294     2.0456 </r>
       <r>    -4.3462     1.7466     2.1512 </r>
       <r>    -4.2857     2.4329     2.2983 </r>
       <r>    -4.2253     1.7037     2.4014 </r>
       <r>    -4.1648     0.6200     2.4389 </r>
       <r>    -4.1043     0.3881     2.4623 </r>
       <r>    -4.0438     1.8389     2.5736 </r>
       <r>    -3.9833     5.9275     2.9320 </r>
       <r>    -3.9229     9.7780     3.5234 </r>
       <r>    -3.8624     9.1702     4.0780 </r>
       <r>    -3.8019     8.1817     4.5728 </r>
       <r>    -3.7414     9.8796     5.1703 </r>
       <r>    -3.6810     8.6492     5.6933 </r>
       <r>    -3.6205     4.0145     5.9361 </r>
       <r>    -3.5600     0.9396     5.9930 </r>
       <r>    -3.4995     0.1099     5.9996 </r>
       <r>    -3.4390     0.0064     6.0000 </r>
       <r>    -3.3786     0.0002     6.0000 </r>
       <r>    -3.3181     0.0000     6.0000 </r>
       <r>    -3.2576     0.0010     6.0001 </r>
       <r>    -3.1971     0.0226     6.0014 </r>
       <r>    -3.1367     0.2452     6.0163 </r>
       <r>    -3.0762     1.3244     6.0964 </r>
       <r>    -3.0157     3.5810     6.3129 </r>
       <r>    -2.9552     4.8610     6.6069 </r>
       <r>    -2.8948     3.3157     6.8074 </r>
       <r>    -2.8343     1.1351     6.8761 </r>
       <r>    -2.7738     0.1944     6.8878 </r>
       <r>    -2.7133     0.0166     6.8888 </r>
       <r>    -2.6528     0.0007     6.8889 </r>
       <r>    -2.5924     0.0000     6.8889 </r>
       <r>    -2.5319     0.0000     6.8889 </r>
       <r>    -2.4714     0.0000     6.8889 </r>
       <r>    -2.4109     0.0001     6.8889 </r>
       <r>    -2.3505     0.0033     6.8891 </r>
       <r>    -2.2900     0.0493     6.8921 </r>
       <r>    -2.2295     0.3714     6.9145 </r>
       <r>    -2.1690     1.5326     7.0072 </r>
       <r>    -2.1085     4.0268     7.2508 </r>
       <r>    -2.0481     7.8109     7.7231 </r>
       <r>    -1.9876    10.5004     8.3582 </r>
       <r>    -1.9271     8.2395     8.8565 </r>
       <r>    -1.8666     3.4125     9.0628 </r>
       <r>    -1.8062     0.7183     9.1063 </r>
       <r>    -1.7457     0.0757     9.1109 </r>
       <r>    -1.6852     0.0040     9.1111 </r>
       <r>    -1.6247     0.0001     9.1111 </r>
       <r>    -1.5643     0.0000     9.1111 </r>
       <r>    -1.5038     0.0000     9.1111 </r>
       <r>    -1.4433     0.0000     9.1111 </r>
       <r>    -1.3828     0.0002     9.1111 </r>
       <r>    -1.3223     0.0049     9.1114 </r>
       <r>    -1.2619     0.0769     9.1161 </r>
       <r>    -1.2014     0.5980     9.1522 </r>
       <r>    -1.1409     2.3271     9.2930 </r>
       <r>    -1.0804     4.6322     9.5731 </r>
       <r>    -1.0200     5.3998     9.8997 </r>
       <r>    -0.9595     6.3004    10.2807 </r>
       <r>    -0.8990     9.2116    10.8378 </r>
       <r>    -0.8385     9.2179    11.3953 </r>
       <r>    -0.7781     4.8534    11.6888 </r>
       <r>    -0.7176     1.2885    11.7667 </r>
       <r>    -0.6571     0.1710    11.7771 </r>
       <r>    -0.5966     0.0113    11.7778 </r>
       <r>    -0.5361     0.0004    11.7778 </r>
       <r>    -0.4757     0.0000    11.7778 </r>
       <r>    -0.4152     0.0000    11.7778 </r>
       <r>    -0.3547     0.0000    11.7778 </r>
       <r>    -0.2942     0.0001    11.7778 </r>
       <r>    -0.2338     0.0036    11.7780 </r>
       <r>    -0.1733     0.0700    11.7822 </r>
       <r>    -0.1128     0.6768    11.8232 </r>
       <r>    -0.0523     3.2652    12.0206 </r>
       <r>     0.0082     7.8898    12.4978 </r>
       <r>     0.0686     9.5736    13.0768 </r>
       <r>     0.1291     5.8416    13.4301 </r>
       <r>     0.1896     1.8536    13.5422 </r>
       <r>     0.2501     0.7604    13.5881 </r>
       <r>     0.3105     1.7600    13.6946 </r>
       <r>     0.3710     3.1145    13.8829 </r>
       <r>     0.4315     2.8096    14.0529 </r>
       <r>     0.4920     1.3714    14.1358 </r>
       <r>     0.5524     0.8895    14.1896 </r>
       <r>     0.6129     1.7423    14.2950 </r>
       <r>     0.6734     2.4348    14.4422 </r>
       <r>     0.7339     1.7396    14.5474 </r>
       <r>     0.7944     0.6243    14.5852 </r>
       <r>     0.8548     0.1121    14.5920 </r>
       <r>     0.9153     0.0100    14.5926 </r>
       <r>     0.9758     0.0005    14.5926 </r>
       <r>     1.0363     0.0005    14.5926 </r>
       <r>     1.0967     0.0125    14.5934 </r>
       <r>     1.1572     0.1571    14.6029 </r>
       <r>     1.2177     0.9828    14.6623 </r>
       <r>     1.2782     3.0744    14.8483 </r>
       <r>     1.3387     4.8261    15.1401 </r>
       <r>     1.3991     3.8067    15.3703 </r>
       <r>     1.4596     1.5077    15.4615 </r>
       <r>     1.5201     0.2990    15.4796 </r>
       <r>     1.5806     0.0296    15.4814 </r>
       <r>     1.6410     0.0016    15.4815 </r>
       <r>     1.7015     0.0056    15.4818 </r>
       <r>     1.7620     0.0842    15.4869 </r>
       <r>     1.8225     0.6427    15.5258 </r>
       <r>     1.8829     2.5239    15.6784 </r>
       <r>     1.9434     5.6030    16.0173 </r>
       <r>     2.0039     9.1302    16.5694 </r>
       <r>     2.0644    14.0668    17.4202 </r>
       <r>     2.1249    17.6679    18.4887 </r>
       <r>     2.1853    14.5148    19.3665 </r>
       <r>     2.2458     7.0533    19.7931 </r>
       <r>     2.3063     1.9043    19.9082 </r>
       <r>     2.3668     0.2721    19.9247 </r>
       <r>     2.4272     0.0199    19.9259 </r>
       <r>     2.4877     0.0007    19.9259 </r>
       <r>     2.5482     0.0002    19.9259 </r>
       <r>     2.6087     0.0050    19.9262 </r>
       <r>     2.6692     0.0747    19.9308 </r>
       <r>     2.7296     0.6118    19.9678 </r>
       <r>     2.7901     2.8295    20.1389 </r>
       <r>     2.8506     7.5286    20.5942 </r>
       <r>     2.9111    11.3354    21.2797 </r>
       <r>     2.9715     9.3165    21.8432 </r>
       <r>     3.0320     4.0473    22.0879 </r>
       <r>     3.0925     1.0596    22.1520 </r>
       <r>     3.1530     1.3335    22.2327 </r>
       <r>     3.2134     4.8552    22.5263 </r>
       <r>     3.2739    10.3142    23.1501 </r>
       <r>     3.3344    13.6413    23.9750 </r>
       <r>     3.3949    13.6034    24.7977 </r>
       <r>     3.4554    10.7584    25.4484 </r>
       <r>     3.5158     7.9609    25.9298 </r>
       <r>     3.5763     7.8247    26.4031 </r>
       <r>     3.6368     6.5480    26.7991 </r>
       <r>     3.6973     3.1624    26.9903 </r>
       <r>     3.7577     1.4596    27.0786 </r>
       <r>     3.8182     3.4524    27.2874 </r>
       <r>     3.8787     7.9936    27.7708 </r>
       <r>     3.9392     9.5383    28.3477 </r>
       <r>     3.9996     5.7227    28.6937 </r>
       <r>     4.0601     1.7225    28.7979 </r>
       <r>     4.1206     0.2592    28.8136 </r>
       <r>     4.1811     0.0197    28.8148 </r>
       <r>     4.2416     0.0082    28.8153 </r>
       <r>     4.3020     0.1059    28.8217 </r>
       <r>     4.3625     0.7486    28.8670 </r>
       <r>     4.4230     2.6541    29.0275 </r>
       <r>     4.4835     4.8285    29.3195 </r>
       <r>     4.5439     5.1774    29.6326 </r>
       <r>     4.6044     5.4059    29.9595 </r>
       <r>     4.6649     6.6723    30.3630 </r>
       <r>     4.7254     5.5987    30.7016 </r>
       <r>     4.7859     2.4781    30.8515 </r>
       <r>     4.8463     0.5585    30.8853 </r>
       <r>     4.9068     0.1452    30.8941 </r>
       <r>     4.9673     0.6369    30.9326 </r>
       <r>     5.0278     2.4010    31.0778 </r>
       <r>     5.0882     4.5627    31.3537 </r>
       <r>     5.1487     4.3563    31.6172 </r>
       <r>     5.2092     2.0893    31.7435 </r>
       <r>     5.2697     0.5022    31.7739 </r>
       <r>     5.3301     0.0603    31.7776 </r>
       <r>     5.3906     0.0041    31.7778 </r>
       <r>     5.4511     0.0103    31.7784 </r>
       <r>     5.5116     0.0946    31.7841 </r>
       <r>     5.5721     0.4381    31.8106 </r>
       <r>     5.6325     1.0166    31.8721 </r>
       <r>     5.6930     1.1847    31.9438 </r>
       <r>     5.7535     0.6937    31.9857 </r>
       <r>     5.8140     0.2038    31.9981 </r>
       <r>     5.8744     0.0299    31.9999 </r>
       <r>     5.9349     0.0022    32.0000 </r>
       <r>     5.9954     0.0001    32.0000 </r>
       <r>     6.0559     0.0000    32.0000 </r>
       <r>     6.1164     0.0004    32.0000 </r>
       <r>     6.1768     0.0105    32.0007 </r>
       <r>     6.2373     0.1378    32.0090 </r>
       <r>     6.2978     0.8972    32.0633 </r>
       <r>     6.3583     2.9240    32.2401 </r>
       <r>     6.4187     4.7852    32.5295 </r>
       <r>     6.4792     3.9386    32.7677 </r>
       <r>     6.5397     1.6294    32.8662 </r>
       <r>     6.6002     0.3379    32.8867 </r>
       <r>     6.6606     0.0350    32.8888 </r>
       <r>     6.7211     0.0018    32.8889 </r>
       <r>     6.7816     0.0000    32.8889 </r>
       <r>     6.8421     0.0000    32.8889 </r>
       <r>     6.9026     0.0000    32.8889 </r>
       <r>     6.9630     0.0008    32.8889 </r>
       <r>     7.0235     0.0188    32.8901 </r>
       <r>     7.0840     0.2152    32.9031 </r>
       <r>     7.1445     1.2446    32.9784 </r>
       <r>     7.2049     3.7843    33.2072 </r>
       <r>     7.2654     6.6514    33.6095 </r>
       <r>     7.3259     7.9150    34.0882 </r>
       <r>     7.3864     6.8375    34.5017 </r>
       <r>     7.4468     3.8092    34.7320 </r>
       <r>     7.5073     1.3817    34.8156 </r>
       <r>     7.5678     1.7423    34.9210 </r>
       <r>     7.6283     5.9159    35.2787 </r>
       <r>     7.6888    11.3078    35.9626 </r>
       <r>     7.7492    10.9403    36.6243 </r>
       <r>     7.8097     5.3412    36.9473 </r>
       <r>     7.8702     1.3124    37.0266 </r>
       <r>     7.9307     0.1619    37.0364 </r>
       <r>     7.9911     0.0156    37.0374 </r>
       <r>     8.0516     0.0617    37.0411 </r>
       <r>     8.1121     0.3319    37.0612 </r>
       <r>     8.1726     0.9119    37.1163 </r>
       <r>     8.2331     1.4455    37.2037 </r>
       <r>     8.2935     2.4611    37.3526 </r>
       <r>     8.3540     6.3263    37.7352 </r>
       <r>     8.4145    12.5353    38.4933 </r>
       <r>     8.4750    16.0858    39.4661 </r>
       <r>     8.5354    14.5030    40.3432 </r>
       <r>     8.5959    10.4058    40.9725 </r>
       <r>     8.6564     6.9057    41.3902 </r>
       <r>     8.7169     3.7275    41.6156 </r>
       <r>     8.7773     1.2253    41.6897 </r>
       <r>     8.8378     0.2125    41.7025 </r>
       <r>     8.8983     0.0216    41.7038 </r>
       <r>     8.9588     0.0618    41.7076 </r>
       <r>     9.0193     0.6167    41.7449 </r>
       <r>     9.0797     3.1635    41.9362 </r>
       <r>     9.1402     8.3004    42.4382 </r>
       <r>     9.2007    11.3294    43.1234 </r>
       <r>     9.2612     9.0697    43.6719 </r>
       <r>     9.3216     7.9168    44.1507 </r>
       <r>     9.3821    10.9528    44.8130 </r>
       <r>     9.4426    12.1310    45.5467 </r>
       <r>     9.5031     8.9454    46.0877 </r>
       <r>     9.5636     4.7788    46.3767 </r>
       <r>     9.6240     3.6711    46.5987 </r>
       <r>     9.6845     7.2234    47.0356 </r>
       <r>     9.7450    11.4166    47.7260 </r>
       <r>     9.8055    12.0232    48.4531 </r>
       <r>     9.8659    10.3972    49.0819 </r>
       <r>     9.9264     7.7046    49.5479 </r>
       <r>     9.9869     4.6179    49.8272 </r>
       <r>    10.0474     2.1160    49.9551 </r>
       <r>    10.1078     0.6288    49.9932 </r>
       <r>    10.1683     0.1039    49.9994 </r>
       <r>    10.2288     0.0089    50.0000 </r>
       <r>    10.2893     0.0004    50.0000 </r>
       <r>    10.3498     0.0000    50.0000 </r>
       <r>    10.4102     0.0000    50.0000 </r>
       <r>    10.4707     0.0000    50.0000 </r>
       <r>    10.5312     0.0000    50.0000 </r>
       <r>    10.5917     0.0000    50.0000 </r>
       <r>    10.6521     0.0000    50.0000 </r>
       <r>    10.7126     0.0000    50.0000 </r>
       <r>    10.7731     0.0000    50.0000 </r>
       <r>    10.8336     0.0000    50.0000 </r>
       <r>    10.8941     0.0000    50.0000 </r>
       <r>    10.9545     0.0000    50.0000 </r>
      </set>
     </set>
    </array>
   </total>
  </dos>
 </calculation>
 <structure name="finalpos" >
  <crystal>
   <varray name="basis" >
    <v>       5.46762554      -0.00000000      -0.00000000 </v>
    <v>       0.00000000       5.46762554       0.00000000 </v>
    <v>       0.00000000      -0.00000000       5.46762554 </v>
   </varray>
   <i name="volume">    163.45427730 </i>
   <varray name="rec_basis" >
    <v>       0.18289475      -0.00000000      -0.00000000 </v>
    <v>       0.00000000       0.18289475       0.00000000 </v>
    <v>       0.00000000      -0.00000000       0.18289475 </v>
   </varray>
  </crystal>
  <varray name="positions" >
   <v>      -0.00000000      -0.00000000      -0.00000000 </v>
   <v>       0.00000000       0.50000000       0.50000000 </v>
   <v>       0.50000000       0.00000000       0.50000000 </v>
   <v>       0.50000000       0.50000000      -0.00000000 </v>
   <v>       0.25000000       0.25000000       0.25000000 </v>
   <v>       0.75000000       0.75000000       0.25000000 </v>
   <v>       0.75000000       0.25000000       0.75000000 </v>
   <v>       0.25000000       0.75000000       0.75000000 </v>
  </varray>
 </structure>
</modeling>
