The current hostname is p0003.ten.osc.edu
The current working directory is /users/PAA0028/sjtuwjx1994
Switching to the working directory /users/PAA0028/sjtuwjx1994/repos/vasp_tutorials/lessons/lesson_02/encut_convergence/700
switching compiler chain
module load intel/19.0.5
module load intelmpi/2019.3
VASP_STD_BIN=/users/PAA0028/sjtuwjx1994/usr/local/vasp/vasp.5.4.1/bin/vasp_std
 running on   40 total cores
 distrk:  each k-point on   40 cores,    1 groups
 distr:  one band on    8 cores,    5 groups
 using from now: INCAR     
 vasp.5.4.1 05Feb16 (build Feb 24 2020 14:33:01) complex                        
  
 POSCAR found type information on POSCAR  Si
 POSCAR found :  1 types and       8 ions
 scaLAPACK will be used
 LDA part: xc-table for Pade appr. of Perdew
 POSCAR, INCAR and KPOINTS ok, starting setup
 FFT: planning ...
 WAVECAR not read
 entering main loop
       N       E                     dE             d eps       ncg     rms          rms(c)
DAV:   1     0.825378114228E+02    0.82538E+02   -0.14719E+04  2800   0.132E+03
DAV:   2    -0.384091508761E+02   -0.12095E+03   -0.11653E+03  3610   0.165E+02
DAV:   3    -0.440323821612E+02   -0.56232E+01   -0.55742E+01  3720   0.329E+01    0.105E+01
DAV:   4    -0.436074704623E+02    0.42491E+00   -0.79589E-01  3700   0.464E+00    0.577E+00
DAV:   5    -0.433723347648E+02    0.23514E+00   -0.45077E-01  3350   0.272E+00    0.544E-01
DAV:   6    -0.433781325628E+02   -0.57978E-02   -0.19680E-02  3710   0.654E-01    0.243E-01
DAV:   7    -0.433805575507E+02   -0.24250E-02   -0.49319E-03  3150   0.304E-01    0.958E-02
DAV:   8    -0.433805604041E+02   -0.28534E-05   -0.14545E-04  3055   0.600E-02
   1 F= -.43380560E+02 E0= -.43380560E+02  d E =-.433806E+02
 curvature:   0.00 expect dE= 0.000E+00 dE for cont linesearch  0.000E+00
 trial: gam= 0.00000 g(F)=  0.853E-59 g(S)=  0.140E+00 ort = 0.000E+00 (trialstep = 0.100E+01)
 search vector abs. value=  0.140E+00
 bond charge predicted
       N       E                     dE             d eps       ncg     rms          rms(c)
DAV:   1    -0.433970601776E+02   -0.16503E-01   -0.33797E+00  3205   0.743E+00
DAV:   2    -0.434048811232E+02   -0.78209E-02   -0.78209E-02  3615   0.125E+00
DAV:   3    -0.434049675704E+02   -0.86447E-04   -0.86447E-04  3585   0.161E-01    0.220E+00
DAV:   4    -0.433307579509E+02    0.74210E-01   -0.35791E-02  2960   0.678E-01    0.110E+00
DAV:   5    -0.432938493341E+02    0.36909E-01   -0.54816E-02  3280   0.853E-01    0.319E-01
DAV:   6    -0.432936570300E+02    0.19230E-03   -0.28429E-03  3355   0.252E-01    0.118E-01
DAV:   7    -0.432935755756E+02    0.81454E-04   -0.30150E-04  3280   0.670E-02
   2 F= -.43293576E+02 E0= -.43293576E+02  d E =0.869848E-01
 trial-energy change:    0.086985  1 .order    0.080980   -0.139773    0.301733
 step:   0.2995(harm=  0.3166)  dis= 0.00000  next Energy=   -43.401328 (dE=-0.208E-01)
 bond charge predicted
       N       E                     dE             d eps       ncg     rms          rms(c)
DAV:   1    -0.434509229603E+02   -0.15727E+00   -0.17222E+00  3185   0.545E+00
DAV:   2    -0.434557938889E+02   -0.48709E-02   -0.48709E-02  3560   0.920E-01
DAV:   3    -0.434558302065E+02   -0.36318E-04   -0.36318E-04  3420   0.108E-01    0.158E+00
DAV:   4    -0.434188276904E+02    0.37003E-01   -0.17685E-02  2850   0.482E-01    0.773E-01
DAV:   5    -0.434006156453E+02    0.18212E-01   -0.26608E-02  3190   0.602E-01    0.249E-01
DAV:   6    -0.434005972591E+02    0.18386E-04   -0.14098E-03  3410   0.182E-01    0.999E-02
DAV:   7    -0.434005226793E+02    0.74580E-04   -0.12185E-04  2220   0.451E-02
   3 F= -.43400523E+02 E0= -.43400523E+02  d E =-.199623E-01
 curvature:  -0.16 expect dE=-0.473E-05 dE for cont linesearch -0.473E-05
 trial: gam= 0.00000 g(F)=  0.118E-58 g(S)=  0.299E-04 ort =-0.205E-02 (trialstep = 0.860E+00)
 search vector abs. value=  0.299E-04
 reached required accuracy - stopping structural energy minimisation
 writing wavefunctions

-----------------------
Resources requested:
nodes=1:ppn=40
mem=190440mb
-----------------------
Resources used:
cput=00:20:25
walltime=00:00:32
mem=3.972GB
vmem=156.763GB
-----------------------
Resource units charged (estimate):
0.035 RUs
-----------------------
