 vasp.5.4.1 05Feb16 (build Feb 24 2020 14:33:01) complex                        
  
 executed on           IFC91_ompi date 2020.02.27  23:42:11
 running on   40 total cores
 distrk:  each k-point on   40 cores,    1 groups
 distr:  one band on NCORES_PER_BAND=   8 cores,    5 groups


--------------------------------------------------------------------------------------------------------


 INCAR:
 POTCAR:    PAW_PBE Si 05Jan2001                  
 POTCAR:    PAW_PBE Si 05Jan2001                  
   VRHFIN =Si: s2p2                                                             
   LEXCH  = PE                                                                  
   EATOM  =   103.0669 eV,    7.5752 Ry                                         
                                                                                
   TITEL  = PAW_PBE Si 05Jan2001                                                
   LULTRA =        F    use ultrasoft PP ?                                      
   IUNSCR =        1    unscreen: 0-lin 1-nonlin 2-no                           
   RPACOR =    1.500    partial core radius                                     
   POMASS =   28.085; ZVAL   =    4.000    mass and valenz                      
   RCORE  =    1.900    outmost cutoff radius                                   
   RWIGS  =    2.480; RWIGS  =    1.312    wigner-seitz radius (au A)           
   ENMAX  =  245.345; ENMIN  =  184.009 eV                                      
   ICORE  =        2    local potential                                         
   LCOR   =        T    correct aug charges                                     
   LPAW   =        T    paw PP                                                  
   EAUG   =  322.069                                                            
   DEXC   =    0.000                                                            
   RMAX   =    1.950    core radius for proj-oper                               
   RAUG   =    1.300    factor for augmentation sphere                          
   RDEP   =    1.993    radius for radial grids                                 
   RDEPT  =    1.837    core radius for aug-charge                              
                                                                                
   Atomic configuration                                                         
    6 entries                                                                   
     n  l   j            E        occ.                                          
     1  0  0.50     -1785.8828   2.0000                                         
     2  0  0.50      -139.4969   2.0000                                         
     2  1  1.50       -95.5546   6.0000                                         
     3  0  0.50       -10.8127   2.0000                                         
     3  1  0.50        -4.0811   2.0000                                         
     3  2  1.50        -4.0817   0.0000                                         
   Description                                                                  
     l       E           TYP  RCUT    TYP  RCUT                                 
     0    -10.8127223     23  1.900                                             
     0     -7.6451159     23  1.900                                             
     1     -4.0811372     23  1.900                                             
     1      2.4879257     23  1.900                                             
     2     -4.0817478      7  1.900                                             
  local pseudopotential read in
  partial core-charges read in
  partial kinetic energy density read in
  atomic valenz-charges read in
  non local Contribution for L=           0  read in
    real space projection operators read in
  non local Contribution for L=           0  read in
    real space projection operators read in
  non local Contribution for L=           1  read in
    real space projection operators read in
  non local Contribution for L=           1  read in
    real space projection operators read in
    PAW grid and wavefunctions read in
 
   number of l-projection  operators is LMAX  =           4
   number of lm-projection operators is LMMAX =           8
 
  PAW_PBE Si 05Jan2001                  :
 energy of atom  1       EATOM= -103.0669
 kinetic energy error for atom=    0.0003 (will be added to EATOM!!)
 
 
 POSCAR: Si dia                                  
  positions in direct lattice
  No initial velocities read in
 exchange correlation table for  LEXCH =        8
   RHO(1)=    0.500       N(1)  =     2000
   RHO(2)=  100.500       N(2)  =     4000
 


--------------------------------------------------------------------------------------------------------


 ion  position               nearest neighbor table
   1  0.000  0.000  0.000-   5 2.35   6 2.35   7 2.35   8 2.35
   2  0.000  0.500  0.500-   5 2.35   6 2.35   7 2.35   8 2.35
   3  0.500  0.000  0.500-   5 2.35   6 2.35   7 2.35   8 2.35
   4  0.500  0.500  0.000-   5 2.35   6 2.35   7 2.35   8 2.35
   5  0.250  0.250  0.250-   1 2.35   2 2.35   3 2.35   4 2.35
   6  0.750  0.750  0.250-   1 2.35   2 2.35   3 2.35   4 2.35
   7  0.750  0.250  0.750-   1 2.35   2 2.35   3 2.35   4 2.35
   8  0.250  0.750  0.750-   1 2.35   2 2.35   3 2.35   4 2.35
 
  LATTYP: Found a simple cubic cell.
 ALAT       =     5.4310000000
  
  Lattice vectors:
  
 A1 = (   5.4310000000,   0.0000000000,   0.0000000000)
 A2 = (   0.0000000000,   5.4310000000,   0.0000000000)
 A3 = (   0.0000000000,   0.0000000000,   5.4310000000)


Analysis of symmetry for initial positions (statically):
=====================================================================
 Subroutine PRICEL returns following result:
 
  LATTYP: Found a face centered cubic cell.
 ALAT       =     5.4310000000
  
  Lattice vectors:
  
 A1 = (   2.7155000000,   2.7155000000,   0.0000000000)
 A2 = (   2.7155000000,   0.0000000000,  -2.7155000000)
 A3 = (   0.0000000000,   2.7155000000,  -2.7155000000)
 
   4 primitive cells build up your supercell.
 

 Routine SETGRP: Setting up the symmetry group for a 
 simple cubic supercell.


 Subroutine GETGRP returns: Found 48 space group operations
 (whereof 24 operations were pure point group operations)
 out of a pool of 48 trial point group operations.


The static configuration has the point symmetry T_d .
 The point group associated with its full space group is O_h .


Analysis of symmetry for dynamics (positions and initial velocities):
=====================================================================
 Subroutine PRICEL returns following result:
 
  LATTYP: Found a face centered cubic cell.
 ALAT       =     5.4310000000
  
  Lattice vectors:
  
 A1 = (   2.7155000000,   2.7155000000,   0.0000000000)
 A2 = (   2.7155000000,   0.0000000000,  -2.7155000000)
 A3 = (   0.0000000000,   2.7155000000,  -2.7155000000)
 
   4 primitive cells build up your supercell.
 

 Routine SETGRP: Setting up the symmetry group for a 
 simple cubic supercell.


 Subroutine GETGRP returns: Found 48 space group operations
 (whereof 24 operations were pure point group operations)
 out of a pool of 48 trial point group operations.


The dynamic configuration has the point symmetry T_d .
 The point group associated with its full space group is O_h .


 Subroutine INISYM returns: Found 48 space group operations
 (whereof 24 operations are pure point group operations),
 and found     4 'primitive' translations

 
 
 KPOINTS: k-points                                

Automatic generation of k-mesh.
Space group operators:
 irot       det(A)        alpha          n_x          n_y          n_z        tau_x        tau_y        tau_z
    1     1.000000     0.000001     1.000000     0.000000     0.000000     0.000000     0.000000     0.000000
    2     1.000000   120.000000    -0.577350    -0.577350    -0.577350     0.000000     0.000000     0.000000
    3     1.000000   120.000000     0.577350     0.577350     0.577350     0.000000     0.000000     0.000000
    4    -1.000000    90.000000     0.000000     0.000000    -1.000000     0.000000     0.000000     0.000000
    5    -1.000000   180.000000     0.000000     0.707107     0.707107     0.000000     0.000000     0.000000
    6    -1.000000    90.000000     0.000000     1.000000     0.000000     0.000000     0.000000     0.000000
    7     1.000000   180.000000     0.000000     0.000000     1.000000     0.000000     0.000000     0.000000
    8     1.000000   120.000000    -0.577350     0.577350     0.577350     0.000000     0.000000     0.000000
    9     1.000000   120.000000    -0.577350     0.577350    -0.577350     0.000000     0.000000     0.000000
   10    -1.000000    90.000000     0.000000     0.000000     1.000000     0.000000     0.000000     0.000000
   11    -1.000000    90.000000    -1.000000     0.000000     0.000000     0.000000     0.000000     0.000000
   12    -1.000000   180.000000     0.707107     0.000000     0.707107     0.000000     0.000000     0.000000
   13     1.000000   120.000000     0.577350    -0.577350     0.577350     0.000000     0.000000     0.000000
   14     1.000000   120.000000    -0.577350    -0.577350     0.577350     0.000000     0.000000     0.000000
   15     1.000000   180.000000     1.000000     0.000000     0.000000     0.000000     0.000000     0.000000
   16    -1.000000    90.000000     0.000000    -1.000000     0.000000     0.000000     0.000000     0.000000
   17    -1.000000   180.000000     0.707107     0.707107     0.000000     0.000000     0.000000     0.000000
   18    -1.000000    90.000000     1.000000     0.000000     0.000000     0.000000     0.000000     0.000000
   19     1.000000   120.000000     0.577350    -0.577350    -0.577350     0.000000     0.000000     0.000000
   20     1.000000   180.000000     0.000000     1.000000     0.000000     0.000000     0.000000     0.000000
   21     1.000000   120.000000     0.577350     0.577350    -0.577350     0.000000     0.000000     0.000000
   22    -1.000000   180.000000     0.000000    -0.707107     0.707107     0.000000     0.000000     0.000000
   23    -1.000000   180.000000     0.707107    -0.707107     0.000000     0.000000     0.000000     0.000000
   24    -1.000000   180.000000     0.707107     0.000000    -0.707107     0.000000     0.000000     0.000000
   25    -1.000000     0.000001     1.000000     0.000000     0.000000     0.750000     0.750000    -0.750000
   26    -1.000000   120.000000    -0.577350    -0.577350    -0.577350     0.750000     0.750000    -0.750000
   27    -1.000000   120.000000     0.577350     0.577350     0.577350     0.750000     0.750000    -0.750000
   28     1.000000    90.000000     0.000000     0.000000    -1.000000     0.750000     0.750000    -0.750000
   29     1.000000   180.000000     0.000000     0.707107     0.707107     0.750000     0.750000    -0.750000
   30     1.000000    90.000000     0.000000     1.000000     0.000000     0.750000     0.750000    -0.750000
   31    -1.000000   180.000000     0.000000     0.000000     1.000000     0.750000     0.750000    -0.750000
   32    -1.000000   120.000000    -0.577350     0.577350     0.577350     0.750000     0.750000    -0.750000
   33    -1.000000   120.000000    -0.577350     0.577350    -0.577350     0.750000     0.750000    -0.750000
   34     1.000000    90.000000     0.000000     0.000000     1.000000     0.750000     0.750000    -0.750000
   35     1.000000    90.000000    -1.000000     0.000000     0.000000     0.750000     0.750000    -0.750000
   36     1.000000   180.000000     0.707107     0.000000     0.707107     0.750000     0.750000    -0.750000
   37    -1.000000   120.000000     0.577350    -0.577350     0.577350     0.750000     0.750000    -0.750000
   38    -1.000000   120.000000    -0.577350    -0.577350     0.577350     0.750000     0.750000    -0.750000
   39    -1.000000   180.000000     1.000000     0.000000     0.000000     0.750000     0.750000    -0.750000
   40     1.000000    90.000000     0.000000    -1.000000     0.000000     0.750000     0.750000    -0.750000
   41     1.000000   180.000000     0.707107     0.707107     0.000000     0.750000     0.750000    -0.750000
   42     1.000000    90.000000     1.000000     0.000000     0.000000     0.750000     0.750000    -0.750000
   43    -1.000000   120.000000     0.577350    -0.577350    -0.577350     0.750000     0.750000    -0.750000
   44    -1.000000   180.000000     0.000000     1.000000     0.000000     0.750000     0.750000    -0.750000
   45    -1.000000   120.000000     0.577350     0.577350    -0.577350     0.750000     0.750000    -0.750000
   46     1.000000   180.000000     0.000000    -0.707107     0.707107     0.750000     0.750000    -0.750000
   47     1.000000   180.000000     0.707107    -0.707107     0.000000     0.750000     0.750000    -0.750000
   48     1.000000   180.000000     0.707107     0.000000    -0.707107     0.750000     0.750000    -0.750000
 
 Subroutine IBZKPT returns following result:
 ===========================================
 
 Found     56 irreducible k-points:
 
 Following reciprocal coordinates:
            Coordinates               Weight
  0.000000  0.000000  0.000000      1.000000
  0.090909  0.000000  0.000000      6.000000
  0.181818  0.000000  0.000000      6.000000
  0.272727  0.000000  0.000000      6.000000
  0.363636  0.000000  0.000000      6.000000
  0.454545  0.000000  0.000000      6.000000
  0.090909  0.090909  0.000000     12.000000
  0.181818  0.090909  0.000000     24.000000
  0.272727  0.090909  0.000000     24.000000
  0.363636  0.090909  0.000000     24.000000
  0.454545  0.090909  0.000000     24.000000
  0.181818  0.181818  0.000000     12.000000
  0.272727  0.181818  0.000000     24.000000
  0.363636  0.181818  0.000000     24.000000
  0.454545  0.181818  0.000000     24.000000
  0.272727  0.272727  0.000000     12.000000
  0.363636  0.272727  0.000000     24.000000
  0.454545  0.272727  0.000000     24.000000
  0.363636  0.363636  0.000000     12.000000
  0.454545  0.363636  0.000000     24.000000
  0.454545  0.454545  0.000000     12.000000
  0.090909  0.090909  0.090909      8.000000
  0.181818  0.090909  0.090909     24.000000
  0.272727  0.090909  0.090909     24.000000
  0.363636  0.090909  0.090909     24.000000
  0.454545  0.090909  0.090909     24.000000
  0.181818  0.181818  0.090909     24.000000
  0.272727  0.181818  0.090909     48.000000
  0.363636  0.181818  0.090909     48.000000
  0.454545  0.181818  0.090909     48.000000
  0.272727  0.272727  0.090909     24.000000
  0.363636  0.272727  0.090909     48.000000
  0.454545  0.272727  0.090909     48.000000
  0.363636  0.363636  0.090909     24.000000
  0.454545  0.363636  0.090909     48.000000
  0.454545  0.454545  0.090909     24.000000
  0.181818  0.181818  0.181818      8.000000
  0.272727  0.181818  0.181818     24.000000
  0.363636  0.181818  0.181818     24.000000
  0.454545  0.181818  0.181818     24.000000
  0.272727  0.272727  0.181818     24.000000
  0.363636  0.272727  0.181818     48.000000
  0.454545  0.272727  0.181818     48.000000
  0.363636  0.363636  0.181818     24.000000
  0.454545  0.363636  0.181818     48.000000
  0.454545  0.454545  0.181818     24.000000
  0.272727  0.272727  0.272727      8.000000
  0.363636  0.272727  0.272727     24.000000
  0.454545  0.272727  0.272727     24.000000
  0.363636  0.363636  0.272727     24.000000
  0.454545  0.363636  0.272727     48.000000
  0.454545  0.454545  0.272727     24.000000
  0.363636  0.363636  0.363636      8.000000
  0.454545  0.363636  0.363636     24.000000
  0.454545  0.454545  0.363636     24.000000
  0.454545  0.454545  0.454545      8.000000
 
 Following cartesian coordinates:
            Coordinates               Weight
  0.000000  0.000000  0.000000      1.000000
  0.090909  0.000000  0.000000      6.000000
  0.181818  0.000000  0.000000      6.000000
  0.272727  0.000000  0.000000      6.000000
  0.363636  0.000000  0.000000      6.000000
  0.454545  0.000000  0.000000      6.000000
  0.090909  0.090909  0.000000     12.000000
  0.181818  0.090909  0.000000     24.000000
  0.272727  0.090909  0.000000     24.000000
  0.363636  0.090909  0.000000     24.000000
  0.454545  0.090909  0.000000     24.000000
  0.181818  0.181818  0.000000     12.000000
  0.272727  0.181818  0.000000     24.000000
  0.363636  0.181818  0.000000     24.000000
  0.454545  0.181818  0.000000     24.000000
  0.272727  0.272727  0.000000     12.000000
  0.363636  0.272727  0.000000     24.000000
  0.454545  0.272727  0.000000     24.000000
  0.363636  0.363636  0.000000     12.000000
  0.454545  0.363636  0.000000     24.000000
  0.454545  0.454545  0.000000     12.000000
  0.090909  0.090909  0.090909      8.000000
  0.181818  0.090909  0.090909     24.000000
  0.272727  0.090909  0.090909     24.000000
  0.363636  0.090909  0.090909     24.000000
  0.454545  0.090909  0.090909     24.000000
  0.181818  0.181818  0.090909     24.000000
  0.272727  0.181818  0.090909     48.000000
  0.363636  0.181818  0.090909     48.000000
  0.454545  0.181818  0.090909     48.000000
  0.272727  0.272727  0.090909     24.000000
  0.363636  0.272727  0.090909     48.000000
  0.454545  0.272727  0.090909     48.000000
  0.363636  0.363636  0.090909     24.000000
  0.454545  0.363636  0.090909     48.000000
  0.454545  0.454545  0.090909     24.000000
  0.181818  0.181818  0.181818      8.000000
  0.272727  0.181818  0.181818     24.000000
  0.363636  0.181818  0.181818     24.000000
  0.454545  0.181818  0.181818     24.000000
  0.272727  0.272727  0.181818     24.000000
  0.363636  0.272727  0.181818     48.000000
  0.454545  0.272727  0.181818     48.000000
  0.363636  0.363636  0.181818     24.000000
  0.454545  0.363636  0.181818     48.000000
  0.454545  0.454545  0.181818     24.000000
  0.272727  0.272727  0.272727      8.000000
  0.363636  0.272727  0.272727     24.000000
  0.454545  0.272727  0.272727     24.000000
  0.363636  0.363636  0.272727     24.000000
  0.454545  0.363636  0.272727     48.000000
  0.454545  0.454545  0.272727     24.000000
  0.363636  0.363636  0.363636      8.000000
  0.454545  0.363636  0.363636     24.000000
  0.454545  0.454545  0.363636     24.000000
  0.454545  0.454545  0.454545      8.000000
 


--------------------------------------------------------------------------------------------------------




 Dimension of arrays:
   k-points           NKPTS =     56   k-points in BZ     NKDIM =     56   number of bands    NBANDS=     25
   number of dos      NEDOS =    301   number of ions     NIONS =      8
   non local maximal  LDIM  =      4   non local SUM 2l+1 LMDIM =      8
   total plane-waves  NPLWV = 110592
   max r-space proj   IRMAX =      1   max aug-charges    IRDMAX=  23279
   dimension x,y,z NGX =    48 NGY =   48 NGZ =   48
   dimension x,y,z NGXF=    96 NGYF=   96 NGZF=   96
   support grid    NGXF=    96 NGYF=   96 NGZF=   96
   ions per type =               8
 NGX,Y,Z   is equivalent  to a cutoff of  14.69, 14.69, 14.69 a.u.
 NGXF,Y,Z  is equivalent  to a cutoff of  29.39, 29.39, 29.39 a.u.


 I would recommend the setting:
   dimension x,y,z NGX =    47 NGY =   47 NGZ =   47
 SYSTEM =  diamond Si                              
 POSCAR =  Si dia                                  

 Startparameter for this run:
   NWRITE =      2    write-flag & timer
   PREC   = accura    normal or accurate (medium, high low for compatibility)
   ISTART =      0    job   : 0-new  1-cont  2-samecut
   ICHARG =      2    charge: 1-file 2-atom 10-const
   ISPIN  =      1    spin polarized calculation?
   LNONCOLLINEAR =      F non collinear calculations
   LSORBIT =      F    spin-orbit coupling
   INIWAV =      1    electr: 0-lowe 1-rand  2-diag
   LASPH  =      F    aspherical Exc in radial PAW
   METAGGA=      F    non-selfconsistent MetaGGA calc.

 Electronic Relaxation 1
   ENCUT  =  700.0 eV  51.45 Ry    7.17 a.u.  11.72 11.72 11.72*2*pi/ulx,y,z
   ENINI  =  700.0     initial cutoff
   ENAUG  =  322.1 eV  augmentation charge cutoff
   NELM   =     60;   NELMIN=  0; NELMDL=  3     # of ELM steps 
   EDIFF  = 0.1E-03   stopping-criterion for ELM
   LREAL  =      F    real-space projection
   NLSPLINE    = F    spline interpolate recip. space projectors
   LCOMPAT=      F    compatible to vasp.4.4
   GGA_COMPAT  = T    GGA compatible to vasp.4.4-vasp.4.6
   LMAXPAW     = -100 max onsite density
   LMAXMIX     =    2 max onsite mixed and CHGCAR
   VOSKOWN=      0    Vosko Wilk Nusair interpolation
   ROPT   =    0.00000
 Ionic relaxation
   EDIFFG = -.1E-01   stopping-criterion for IOM
   NSW    =      9    number of steps for IOM
   NBLOCK =      1;   KBLOCK =      9    inner block; outer block 
   IBRION =      2    ionic relax: 0-MD 1-quasi-New 2-CG
   NFREE  =      1    steps in history (QN), initial steepest desc. (CG)
   ISIF   =      3    stress and relaxation
   IWAVPR =     11    prediction:  0-non 1-charg 2-wave 3-comb
   ISYM   =      2    0-nonsym 1-usesym 2-fastsym
   LCORR  =      T    Harris-Foulkes like correction to forces

   POTIM  = 1.0000    time-step for ionic-motion
   TEIN   =    0.0    initial temperature
   TEBEG  =    0.0;   TEEND  =   0.0 temperature during run
   SMASS  =  -3.00    Nose mass-parameter (am)
   estimated Nose-frequenzy (Omega)   =  0.10E-29 period in steps =****** mass=  -0.674E-27a.u.
   SCALEE = 1.0000    scale energy and forces
   NPACO  =    256;   APACO  = 16.0  distance and # of slots for P.C.
   PSTRESS=    0.0 pullay stress

  Mass of Ions in am
   POMASS =  28.09
  Ionic Valenz
   ZVAL   =   4.00
  Atomic Wigner-Seitz radii
   RWIGS  =  -1.00
  virtual crystal weights 
   VCA    =   1.00
   NELECT =      32.0000    total number of electrons
   NUPDOWN=      -1.0000    fix difference up-down

 DOS related values:
   EMIN   =  10.00;   EMAX   =-10.00  energy-range for DOS
   EFERMI =   0.00
   ISMEAR =     0;   SIGMA  =   0.10  broadening in eV -4-tet -1-fermi 0-gaus

 Electronic relaxation 2 (details)
   IALGO  =     38    algorithm
   LDIAG  =      T    sub-space diagonalisation (order eigenvalues)
   LSUBROT=      F    optimize rotation matrix (better conditioning)
   TURBO    =      0    0=normal 1=particle mesh
   IRESTART =      0    0=no restart 2=restart with 2 vectors
   NREBOOT  =      0    no. of reboots
   NMIN     =      0    reboot dimension
   EREF     =   0.00    reference energy to select bands
   IMIX   =      4    mixing-type and parameters
     AMIX     =   0.40;   BMIX     =  1.00
     AMIX_MAG =   1.60;   BMIX_MAG =  1.00
     AMIN     =   0.10
     WC   =   100.;   INIMIX=   1;  MIXPRE=   1;  MAXMIX= -45

 Intra band minimization:
   WEIMIN = 0.0010     energy-eigenvalue tresh-hold
   EBREAK =  0.10E-05  absolut break condition
   DEPER  =   0.30     relativ break condition  

   TIME   =   0.40     timestep for ELM

  volume/ion in A,a.u.               =      20.02       135.13
  Fermi-wavevector in a.u.,A,eV,Ry     =   0.956999  1.808467 12.460868  0.915848
  Thomas-Fermi vector in A             =   2.085978
 
 Write flags
   LWAVE  =      T    write WAVECAR
   LCHARG =      T    write CHGCAR
   LVTOT  =      F    write LOCPOT, total local potential
   LVHAR  =      F    write LOCPOT, Hartree potential only
   LELF   =      F    write electronic localiz. function (ELF)
   LORBIT =      0    0 simple, 1 ext, 2 COOP (PROOUT)


 Dipole corrections
   LMONO  =      F    monopole corrections only (constant potential shift)
   LDIPOL =      F    correct potential (dipole corrections)
   IDIPOL =      0    1-x, 2-y, 3-z, 4-all directions 
   EPSILON=  1.0000000 bulk dielectric constant

 Exchange correlation treatment:
   GGA     =    --    GGA type
   LEXCH   =     8    internal setting for exchange type
   VOSKOWN=      0    Vosko Wilk Nusair interpolation
   LHFCALC =     F    Hartree Fock is set to
   LHFONE  =     F    Hartree Fock one center treatment
   AEXX    =    0.0000 exact exchange contribution

 Linear response parameters
   LEPSILON=     F    determine dielectric tensor
   LRPA    =     F    only Hartree local field effects (RPA)
   LNABLA  =     F    use nabla operator in PAW spheres
   LVEL    =     F    velocity operator in full k-point grid
   LINTERFAST=   F  fast interpolation
   KINTER  =     0    interpolate to denser k-point grid
   CSHIFT  =0.1000    complex shift for real part using Kramers Kronig
   OMEGAMAX=  -1.0    maximum frequency
   DEG_THRESHOLD= 0.2000000E-02 threshold for treating states as degnerate
   RTIME   =    0.100 relaxation time in fs

 Orbital magnetization related:
   ORBITALMAG=     F  switch on orbital magnetization
   LCHIMAG   =     F  perturbation theory with respect to B field
   DQ        =  0.001000  dq finite difference perturbation B field



--------------------------------------------------------------------------------------------------------


 conjugate gradient relaxation of ions
 charge density and potential will be updated during run
 non-spin polarized calculation
 Variant of blocked Davidson
 Davidson routine will perform the subspace rotation
 perform sub-space diagonalisation
    after iterative eigenvector-optimisation
 modified Broyden-mixing scheme, WC =      100.0
 initial mixing is a Kerker type mixing with AMIX =  0.4000 and BMIX =      1.0000
 Hartree-type preconditioning will be used
 using additional bands            9
 reciprocal scheme for non local part
 use partial core corrections
 calculate Harris-corrections to forces 
   (improved forces if not selfconsistent)
 use gradient corrections 
 use of overlap-Matrix (Vanderbilt PP)
 Gauss-broadening in eV      SIGMA  =   0.10


--------------------------------------------------------------------------------------------------------


  energy-cutoff  :      700.00
  volume of cell :      160.19
      direct lattice vectors                 reciprocal lattice vectors
     5.431000000  0.000000000  0.000000000     0.184128153  0.000000000  0.000000000
     0.000000000  5.431000000  0.000000000     0.000000000  0.184128153  0.000000000
     0.000000000  0.000000000  5.431000000     0.000000000  0.000000000  0.184128153

  length of vectors
     5.431000000  5.431000000  5.431000000     0.184128153  0.184128153  0.184128153


 
 k-points in units of 2pi/SCALE and weight: k-points                                
   0.00000000  0.00000000  0.00000000       0.001
   0.09090909  0.00000000  0.00000000       0.005
   0.18181818  0.00000000  0.00000000       0.005
   0.27272727  0.00000000  0.00000000       0.005
   0.36363636  0.00000000  0.00000000       0.005
   0.45454545  0.00000000  0.00000000       0.005
   0.09090909  0.09090909  0.00000000       0.009
   0.18181818  0.09090909  0.00000000       0.018
   0.27272727  0.09090909  0.00000000       0.018
   0.36363636  0.09090909  0.00000000       0.018
   0.45454545  0.09090909  0.00000000       0.018
   0.18181818  0.18181818  0.00000000       0.009
   0.27272727  0.18181818  0.00000000       0.018
   0.36363636  0.18181818  0.00000000       0.018
   0.45454545  0.18181818  0.00000000       0.018
   0.27272727  0.27272727  0.00000000       0.009
   0.36363636  0.27272727  0.00000000       0.018
   0.45454545  0.27272727  0.00000000       0.018
   0.36363636  0.36363636  0.00000000       0.009
   0.45454545  0.36363636  0.00000000       0.018
   0.45454545  0.45454545  0.00000000       0.009
   0.09090909  0.09090909  0.09090909       0.006
   0.18181818  0.09090909  0.09090909       0.018
   0.27272727  0.09090909  0.09090909       0.018
   0.36363636  0.09090909  0.09090909       0.018
   0.45454545  0.09090909  0.09090909       0.018
   0.18181818  0.18181818  0.09090909       0.018
   0.27272727  0.18181818  0.09090909       0.036
   0.36363636  0.18181818  0.09090909       0.036
   0.45454545  0.18181818  0.09090909       0.036
   0.27272727  0.27272727  0.09090909       0.018
   0.36363636  0.27272727  0.09090909       0.036
   0.45454545  0.27272727  0.09090909       0.036
   0.36363636  0.36363636  0.09090909       0.018
   0.45454545  0.36363636  0.09090909       0.036
   0.45454545  0.45454545  0.09090909       0.018
   0.18181818  0.18181818  0.18181818       0.006
   0.27272727  0.18181818  0.18181818       0.018
   0.36363636  0.18181818  0.18181818       0.018
   0.45454545  0.18181818  0.18181818       0.018
   0.27272727  0.27272727  0.18181818       0.018
   0.36363636  0.27272727  0.18181818       0.036
   0.45454545  0.27272727  0.18181818       0.036
   0.36363636  0.36363636  0.18181818       0.018
   0.45454545  0.36363636  0.18181818       0.036
   0.45454545  0.45454545  0.18181818       0.018
   0.27272727  0.27272727  0.27272727       0.006
   0.36363636  0.27272727  0.27272727       0.018
   0.45454545  0.27272727  0.27272727       0.018
   0.36363636  0.36363636  0.27272727       0.018
   0.45454545  0.36363636  0.27272727       0.036
   0.45454545  0.45454545  0.27272727       0.018
   0.36363636  0.36363636  0.36363636       0.006
   0.45454545  0.36363636  0.36363636       0.018
   0.45454545  0.45454545  0.36363636       0.018
   0.45454545  0.45454545  0.45454545       0.006
 
 k-points in reciprocal lattice and weights: k-points                                
   0.00000000  0.00000000  0.00000000       0.001
   0.09090909  0.00000000  0.00000000       0.005
   0.18181818  0.00000000  0.00000000       0.005
   0.27272727  0.00000000  0.00000000       0.005
   0.36363636  0.00000000  0.00000000       0.005
   0.45454545  0.00000000  0.00000000       0.005
   0.09090909  0.09090909  0.00000000       0.009
   0.18181818  0.09090909  0.00000000       0.018
   0.27272727  0.09090909  0.00000000       0.018
   0.36363636  0.09090909  0.00000000       0.018
   0.45454545  0.09090909  0.00000000       0.018
   0.18181818  0.18181818  0.00000000       0.009
   0.27272727  0.18181818  0.00000000       0.018
   0.36363636  0.18181818  0.00000000       0.018
   0.45454545  0.18181818  0.00000000       0.018
   0.27272727  0.27272727  0.00000000       0.009
   0.36363636  0.27272727  0.00000000       0.018
   0.45454545  0.27272727  0.00000000       0.018
   0.36363636  0.36363636  0.00000000       0.009
   0.45454545  0.36363636  0.00000000       0.018
   0.45454545  0.45454545  0.00000000       0.009
   0.09090909  0.09090909  0.09090909       0.006
   0.18181818  0.09090909  0.09090909       0.018
   0.27272727  0.09090909  0.09090909       0.018
   0.36363636  0.09090909  0.09090909       0.018
   0.45454545  0.09090909  0.09090909       0.018
   0.18181818  0.18181818  0.09090909       0.018
   0.27272727  0.18181818  0.09090909       0.036
   0.36363636  0.18181818  0.09090909       0.036
   0.45454545  0.18181818  0.09090909       0.036
   0.27272727  0.27272727  0.09090909       0.018
   0.36363636  0.27272727  0.09090909       0.036
   0.45454545  0.27272727  0.09090909       0.036
   0.36363636  0.36363636  0.09090909       0.018
   0.45454545  0.36363636  0.09090909       0.036
   0.45454545  0.45454545  0.09090909       0.018
   0.18181818  0.18181818  0.18181818       0.006
   0.27272727  0.18181818  0.18181818       0.018
   0.36363636  0.18181818  0.18181818       0.018
   0.45454545  0.18181818  0.18181818       0.018
   0.27272727  0.27272727  0.18181818       0.018
   0.36363636  0.27272727  0.18181818       0.036
   0.45454545  0.27272727  0.18181818       0.036
   0.36363636  0.36363636  0.18181818       0.018
   0.45454545  0.36363636  0.18181818       0.036
   0.45454545  0.45454545  0.18181818       0.018
   0.27272727  0.27272727  0.27272727       0.006
   0.36363636  0.27272727  0.27272727       0.018
   0.45454545  0.27272727  0.27272727       0.018
   0.36363636  0.36363636  0.27272727       0.018
   0.45454545  0.36363636  0.27272727       0.036
   0.45454545  0.45454545  0.27272727       0.018
   0.36363636  0.36363636  0.36363636       0.006
   0.45454545  0.36363636  0.36363636       0.018
   0.45454545  0.45454545  0.36363636       0.018
   0.45454545  0.45454545  0.45454545       0.006
 
 position of ions in fractional coordinates (direct lattice) 
   0.00000000  0.00000000  0.00000000
   0.00000000  0.50000000  0.50000000
   0.50000000  0.00000000  0.50000000
   0.50000000  0.50000000  0.00000000
   0.25000000  0.25000000  0.25000000
   0.75000000  0.75000000  0.25000000
   0.75000000  0.25000000  0.75000000
   0.25000000  0.75000000  0.75000000
 
 position of ions in cartesian coordinates  (Angst):
   0.00000000  0.00000000  0.00000000
   0.00000000  2.71550000  2.71550000
   2.71550000  0.00000000  2.71550000
   2.71550000  2.71550000  0.00000000
   1.35775000  1.35775000  1.35775000
   4.07325000  4.07325000  1.35775000
   4.07325000  1.35775000  4.07325000
   1.35775000  4.07325000  4.07325000
 


--------------------------------------------------------------------------------------------------------


 k-point  1 :   0.0000 0.0000 0.0000  plane waves:    6763
 k-point  2 :   0.0909 0.0000 0.0000  plane waves:    6755
 k-point  3 :   0.1818 0.0000 0.0000  plane waves:    6751
 k-point  4 :   0.2727 0.0000 0.0000  plane waves:    6743
 k-point  5 :   0.3636 0.0000 0.0000  plane waves:    6716
 k-point  6 :   0.4545 0.0000 0.0000  plane waves:    6752
 k-point  7 :   0.0909 0.0909 0.0000  plane waves:    6757
 k-point  8 :   0.1818 0.0909 0.0000  plane waves:    6750
 k-point  9 :   0.2727 0.0909 0.0000  plane waves:    6756
 k-point 10 :   0.3636 0.0909 0.0000  plane waves:    6731
 k-point 11 :   0.4545 0.0909 0.0000  plane waves:    6727
 k-point 12 :   0.1818 0.1818 0.0000  plane waves:    6757
 k-point 13 :   0.2727 0.1818 0.0000  plane waves:    6747
 k-point 14 :   0.3636 0.1818 0.0000  plane waves:    6737
 k-point 15 :   0.4545 0.1818 0.0000  plane waves:    6725
 k-point 16 :   0.2727 0.2727 0.0000  plane waves:    6731
 k-point 17 :   0.3636 0.2727 0.0000  plane waves:    6731
 k-point 18 :   0.4545 0.2727 0.0000  plane waves:    6727
 k-point 19 :   0.3636 0.3636 0.0000  plane waves:    6750
 k-point 20 :   0.4545 0.3636 0.0000  plane waves:    6738
 k-point 21 :   0.4545 0.4545 0.0000  plane waves:    6736
 k-point 22 :   0.0909 0.0909 0.0909  plane waves:    6754
 k-point 23 :   0.1818 0.0909 0.0909  plane waves:    6753
 k-point 24 :   0.2727 0.0909 0.0909  plane waves:    6726
 k-point 25 :   0.3636 0.0909 0.0909  plane waves:    6732
 k-point 26 :   0.4545 0.0909 0.0909  plane waves:    6733
 k-point 27 :   0.1818 0.1818 0.0909  plane waves:    6750
 k-point 28 :   0.2727 0.1818 0.0909  plane waves:    6743
 k-point 29 :   0.3636 0.1818 0.0909  plane waves:    6743
 k-point 30 :   0.4545 0.1818 0.0909  plane waves:    6737
 k-point 31 :   0.2727 0.2727 0.0909  plane waves:    6732
 k-point 32 :   0.3636 0.2727 0.0909  plane waves:    6722
 k-point 33 :   0.4545 0.2727 0.0909  plane waves:    6745
 k-point 34 :   0.3636 0.3636 0.0909  plane waves:    6725
 k-point 35 :   0.4545 0.3636 0.0909  plane waves:    6735
 k-point 36 :   0.4545 0.4545 0.0909  plane waves:    6732
 k-point 37 :   0.1818 0.1818 0.1818  plane waves:    6739
 k-point 38 :   0.2727 0.1818 0.1818  plane waves:    6727
 k-point 39 :   0.3636 0.1818 0.1818  plane waves:    6740
 k-point 40 :   0.4545 0.1818 0.1818  plane waves:    6721
 k-point 41 :   0.2727 0.2727 0.1818  plane waves:    6717
 k-point 42 :   0.3636 0.2727 0.1818  plane waves:    6723
 k-point 43 :   0.4545 0.2727 0.1818  plane waves:    6729
 k-point 44 :   0.3636 0.3636 0.1818  plane waves:    6738
 k-point 45 :   0.4545 0.3636 0.1818  plane waves:    6735
 k-point 46 :   0.4545 0.4545 0.1818  plane waves:    6743
 k-point 47 :   0.2727 0.2727 0.2727  plane waves:    6716
 k-point 48 :   0.3636 0.2727 0.2727  plane waves:    6733
 k-point 49 :   0.4545 0.2727 0.2727  plane waves:    6737
 k-point 50 :   0.3636 0.3636 0.2727  plane waves:    6739
 k-point 51 :   0.4545 0.3636 0.2727  plane waves:    6738
 k-point 52 :   0.4545 0.4545 0.2727  plane waves:    6730
 k-point 53 :   0.3636 0.3636 0.3636  plane waves:    6719
 k-point 54 :   0.4545 0.3636 0.3636  plane waves:    6758
 k-point 55 :   0.4545 0.4545 0.3636  plane waves:    6735
 k-point 56 :   0.4545 0.4545 0.4545  plane waves:    6752

 maximum and minimum number of plane-waves per node :       867      818

 maximum number of plane-waves:      6763
 maximum index in each direction: 
   IXMAX=   11   IYMAX=   11   IZMAX=   11
   IXMIN=  -12   IYMIN=  -12   IZMIN=  -12

 NGX is ok and might be reduce to  48
 NGY is ok and might be reduce to  48
 NGZ is ok and might be reduce to  48

 total amount of memory used by VASP on root node    39821. kBytes
========================================================================

   base      :      30000. kBytes
   nonl-proj :       3155. kBytes
   fftplans  :       1174. kBytes
   grid      :       1637. kBytes
   one-center:          3. kBytes
   wavefun   :       3852. kBytes
 
     INWAV:  cpu time    0.0000: real time    0.0000
 Broyden mixing: mesh for mixing (old mesh)
   NGX = 23   NGY = 23   NGZ = 23
  (NGX  = 96   NGY  = 96   NGZ  = 96)
  gives a total of  12167 points

 initial charge density was supplied:
 charge density of overlapping atoms calculated
 number of electron      32.0000000 magnetization 
 keeping initial charge density in first step


--------------------------------------------------------------------------------------------------------


 Maximum index for augmentation-charges          585 (set IRDMAX)


--------------------------------------------------------------------------------------------------------


 First call to EWALD:  gamma=   0.326
 Maximum number of real-space cells 3x 3x 3
 Maximum number of reciprocal cells 3x 3x 3

 FEWALD executed in parallel
    FEWALD:  cpu time    0.0012: real time    0.0012


----------------------------------------- Iteration    1(   1)  ---------------------------------------


    POTLOK:  cpu time    0.0144: real time    0.0145
    SETDIJ:  cpu time    0.0019: real time    0.0020
     EDDAV:  cpu time    1.1422: real time    1.1500
       DOS:  cpu time    0.0011: real time    0.0011
    --------------------------------------------
      LOOP:  cpu time    1.1609: real time    1.1702

 eigenvalue-minimisations  :  2800
 total energy-change (2. order) : 0.8253781E+02  (-0.1471858E+04)
 number of electron      32.0000000 magnetization 
 augmentation part       32.0000000 magnetization 

 Free energy of the ion-electron system (eV)
  ---------------------------------------------------
  alpha Z        PSCENC =        13.44915721
  Ewald energy   TEWEN  =      -914.08579262
  -Hartree energ DENC   =       -44.03749844
  -exchange      EXHF   =         0.00000000
  -V(xc)+E(xc)   XCENC  =       -74.41615803
  PAW double counting   =       704.99039692     -564.24414232
  entropy T*S    EENTRO =        -0.00832133
  eigenvalues    EBANDS =       136.35718068
  atomic energy  EATOM  =       824.53298936
  Solvation  Ediel_sol  =         0.00000000
  ---------------------------------------------------
  free energy    TOTEN  =        82.53781142 eV

  energy without entropy =       82.54613276  energy(sigma->0) =       82.54197209


--------------------------------------------------------------------------------------------------------




----------------------------------------- Iteration    1(   2)  ---------------------------------------


     EDDAV:  cpu time    1.0730: real time    1.0757
       DOS:  cpu time    0.0010: real time    0.0010
    --------------------------------------------
      LOOP:  cpu time    1.0749: real time    1.0844

 eigenvalue-minimisations  :  3610
 total energy-change (2. order) :-0.1209470E+03  (-0.1165340E+03)
 number of electron      32.0000000 magnetization 
 augmentation part       32.0000000 magnetization 

 Free energy of the ion-electron system (eV)
  ---------------------------------------------------
  alpha Z        PSCENC =        13.44915721
  Ewald energy   TEWEN  =      -914.08579262
  -Hartree energ DENC   =       -44.03749844
  -exchange      EXHF   =         0.00000000
  -V(xc)+E(xc)   XCENC  =       -74.41615803
  PAW double counting   =       704.99039692     -564.24414232
  entropy T*S    EENTRO =        -0.00027625
  eigenvalues    EBANDS =        15.40217330
  atomic energy  EATOM  =       824.53298936
  Solvation  Ediel_sol  =         0.00000000
  ---------------------------------------------------
  free energy    TOTEN  =       -38.40915088 eV

  energy without entropy =      -38.40887462  energy(sigma->0) =      -38.40901275


--------------------------------------------------------------------------------------------------------




----------------------------------------- Iteration    1(   3)  ---------------------------------------


     EDDAV:  cpu time    1.1227: real time    1.1256
       DOS:  cpu time    0.0008: real time    0.0008
    CHARGE:  cpu time    0.0683: real time    0.0686
    MIXING:  cpu time    0.0012: real time    0.0014
    --------------------------------------------
      LOOP:  cpu time    1.1935: real time    1.2003

 eigenvalue-minimisations  :  3720
 total energy-change (2. order) :-0.5623231E+01  (-0.5574229E+01)
 number of electron      32.0000000 magnetization 
 augmentation part       -1.8744412 magnetization 

 Broyden mixing:
  rms(total) = 0.10498E+01    rms(broyden)= 0.10498E+01
  rms(prec ) = 0.14041E+01
  weight for this iteration     100.00

 Free energy of the ion-electron system (eV)
  ---------------------------------------------------
  alpha Z        PSCENC =        13.44915721
  Ewald energy   TEWEN  =      -914.08579262
  -Hartree energ DENC   =       -44.03749844
  -exchange      EXHF   =         0.00000000
  -V(xc)+E(xc)   XCENC  =       -74.41615803
  PAW double counting   =       704.99039692     -564.24414232
  entropy T*S    EENTRO =        -0.00000000
  eigenvalues    EBANDS =         9.77866576
  atomic energy  EATOM  =       824.53298936
  Solvation  Ediel_sol  =         0.00000000
  ---------------------------------------------------
  free energy    TOTEN  =       -44.03238216 eV

  energy without entropy =      -44.03238216  energy(sigma->0) =      -44.03238216


--------------------------------------------------------------------------------------------------------




----------------------------------------- Iteration    1(   4)  ---------------------------------------


    POTLOK:  cpu time    0.0118: real time    0.0119
    SETDIJ:  cpu time    0.0024: real time    0.0024
     EDDAV:  cpu time    1.2559: real time    1.2795
       DOS:  cpu time    0.0009: real time    0.0009
    CHARGE:  cpu time    0.0682: real time    0.0683
    MIXING:  cpu time    0.0011: real time    0.0012
    --------------------------------------------
      LOOP:  cpu time    1.3407: real time    1.3681

 eigenvalue-minimisations  :  3700
 total energy-change (2. order) : 0.4249117E+00  (-0.7958912E-01)
 number of electron      32.0000000 magnetization 
 augmentation part       -1.8592618 magnetization 

 Broyden mixing:
  rms(total) = 0.57750E+00    rms(broyden)= 0.57750E+00
  rms(prec ) = 0.80471E+00
  weight for this iteration     100.00

 eigenvalues of (default mixing * dielectric matrix)
  average eigenvalue GAMMA=   2.1733
  2.1733

 Free energy of the ion-electron system (eV)
  ---------------------------------------------------
  alpha Z        PSCENC =        13.44915721
  Ewald energy   TEWEN  =      -914.08579262
  -Hartree energ DENC   =       -49.90412099
  -exchange      EXHF   =         0.00000000
  -V(xc)+E(xc)   XCENC  =       -73.47559214
  PAW double counting   =      1625.87217674    -1485.56207626
  entropy T*S    EENTRO =        -0.00000000
  eigenvalues    EBANDS =        15.56578823
  atomic energy  EATOM  =       824.53298936
  Solvation  Ediel_sol  =         0.00000000
  ---------------------------------------------------
  free energy    TOTEN  =       -43.60747046 eV

  energy without entropy =      -43.60747046  energy(sigma->0) =      -43.60747046


--------------------------------------------------------------------------------------------------------




----------------------------------------- Iteration    1(   5)  ---------------------------------------


    POTLOK:  cpu time    0.0118: real time    0.0119
    SETDIJ:  cpu time    0.0017: real time    0.0017
     EDDAV:  cpu time    1.0394: real time    1.0427
       DOS:  cpu time    0.0009: real time    0.0009
    CHARGE:  cpu time    0.0687: real time    0.0689
    MIXING:  cpu time    0.0010: real time    0.0011
    --------------------------------------------
      LOOP:  cpu time    1.1240: real time    1.1312

 eigenvalue-minimisations  :  3350
 total energy-change (2. order) : 0.2351357E+00  (-0.4507665E-01)
 number of electron      32.0000000 magnetization 
 augmentation part       -1.8331175 magnetization 

 Broyden mixing:
  rms(total) = 0.54369E-01    rms(broyden)= 0.54369E-01
  rms(prec ) = 0.74341E-01
  weight for this iteration     100.00

 eigenvalues of (default mixing * dielectric matrix)
  average eigenvalue GAMMA=   1.7501
  1.0076  2.4927

 Free energy of the ion-electron system (eV)
  ---------------------------------------------------
  alpha Z        PSCENC =        13.44915721
  Ewald energy   TEWEN  =      -914.08579262
  -Hartree energ DENC   =       -59.12261283
  -exchange      EXHF   =         0.00000000
  -V(xc)+E(xc)   XCENC  =       -72.00139130
  PAW double counting   =      3381.44997809    -3241.68114895
  entropy T*S    EENTRO =        -0.00000021
  eigenvalues    EBANDS =        24.08648648
  atomic energy  EATOM  =       824.53298936
  Solvation  Ediel_sol  =         0.00000000
  ---------------------------------------------------
  free energy    TOTEN  =       -43.37233476 eV

  energy without entropy =      -43.37233456  energy(sigma->0) =      -43.37233466


--------------------------------------------------------------------------------------------------------




----------------------------------------- Iteration    1(   6)  ---------------------------------------


    POTLOK:  cpu time    0.0119: real time    0.0135
    SETDIJ:  cpu time    0.0037: real time    0.0045
     EDDAV:  cpu time    1.0939: real time    1.1548
       DOS:  cpu time    0.0010: real time    0.0010
    CHARGE:  cpu time    0.0675: real time    0.0677
    MIXING:  cpu time    0.0009: real time    0.0009
    --------------------------------------------
      LOOP:  cpu time    1.1795: real time    1.2463

 eigenvalue-minimisations  :  3710
 total energy-change (2. order) :-0.5797798E-02  (-0.1967952E-02)
 number of electron      32.0000000 magnetization 
 augmentation part       -1.8331494 magnetization 

 Broyden mixing:
  rms(total) = 0.24265E-01    rms(broyden)= 0.24265E-01
  rms(prec ) = 0.35830E-01
  weight for this iteration     100.00

 eigenvalues of (default mixing * dielectric matrix)
  average eigenvalue GAMMA=   2.0361
  0.8997  2.6980  2.5106

 Free energy of the ion-electron system (eV)
  ---------------------------------------------------
  alpha Z        PSCENC =        13.44915721
  Ewald energy   TEWEN  =      -914.08579262
  -Hartree energ DENC   =       -59.66858281
  -exchange      EXHF   =         0.00000000
  -V(xc)+E(xc)   XCENC  =       -71.89250651
  PAW double counting   =      3534.15906845    -3394.37394065
  entropy T*S    EENTRO =        -0.00000021
  eigenvalues    EBANDS =        24.50147522
  atomic energy  EATOM  =       824.53298936
  Solvation  Ediel_sol  =         0.00000000
  ---------------------------------------------------
  free energy    TOTEN  =       -43.37813256 eV

  energy without entropy =      -43.37813235  energy(sigma->0) =      -43.37813246


--------------------------------------------------------------------------------------------------------




----------------------------------------- Iteration    1(   7)  ---------------------------------------


    POTLOK:  cpu time    0.0119: real time    0.0119
    SETDIJ:  cpu time    0.0017: real time    0.0017
     EDDAV:  cpu time    1.3003: real time    1.3329
       DOS:  cpu time    0.0010: real time    0.0010
    CHARGE:  cpu time    0.0686: real time    0.0688
    MIXING:  cpu time    0.0009: real time    0.0009
    --------------------------------------------
      LOOP:  cpu time    1.3848: real time    1.4204

 eigenvalue-minimisations  :  3150
 total energy-change (2. order) :-0.2424988E-02  (-0.4931919E-03)
 number of electron      32.0000000 magnetization 
 augmentation part       -1.8357739 magnetization 

 Broyden mixing:
  rms(total) = 0.95822E-02    rms(broyden)= 0.95822E-02
  rms(prec ) = 0.11915E-01
  weight for this iteration     100.00

 eigenvalues of (default mixing * dielectric matrix)
  average eigenvalue GAMMA=   1.7418
  2.6149  2.3972  0.9776  0.9776

 Free energy of the ion-electron system (eV)
  ---------------------------------------------------
  alpha Z        PSCENC =        13.44915721
  Ewald energy   TEWEN  =      -914.08579262
  -Hartree energ DENC   =       -59.52527705
  -exchange      EXHF   =         0.00000000
  -V(xc)+E(xc)   XCENC  =       -71.88415788
  PAW double counting   =      3505.72333875    -3365.85779994
  entropy T*S    EENTRO =        -0.00000012
  eigenvalues    EBANDS =        24.26698474
  atomic energy  EATOM  =       824.53298936
  Solvation  Ediel_sol  =         0.00000000
  ---------------------------------------------------
  free energy    TOTEN  =       -43.38055755 eV

  energy without entropy =      -43.38055743  energy(sigma->0) =      -43.38055749


--------------------------------------------------------------------------------------------------------




----------------------------------------- Iteration    1(   8)  ---------------------------------------


    POTLOK:  cpu time    0.0142: real time    0.0142
    SETDIJ:  cpu time    0.0017: real time    0.0017
     EDDAV:  cpu time    1.1341: real time    1.1484
       DOS:  cpu time    0.0010: real time    0.0010
    --------------------------------------------
      LOOP:  cpu time    1.1514: real time    1.1691

 eigenvalue-minimisations  :  3055
 total energy-change (2. order) :-0.2853432E-05  (-0.1454482E-04)
 number of electron      32.0000000 magnetization 
 augmentation part       -1.8357739 magnetization 

 Free energy of the ion-electron system (eV)
  ---------------------------------------------------
  alpha Z        PSCENC =        13.44915721
  Ewald energy   TEWEN  =      -914.08579262
  -Hartree energ DENC   =       -59.63816258
  -exchange      EXHF   =         0.00000000
  -V(xc)+E(xc)   XCENC  =       -71.87083073
  PAW double counting   =      3500.95965094    -3361.10494953
  entropy T*S    EENTRO =        -0.00000013
  eigenvalues    EBANDS =        24.37737768
  atomic energy  EATOM  =       824.53298936
  Solvation  Ediel_sol  =         0.00000000
  ---------------------------------------------------
  free energy    TOTEN  =       -43.38056040 eV

  energy without entropy =      -43.38056027  energy(sigma->0) =      -43.38056034


--------------------------------------------------------------------------------------------------------




 average (electrostatic) potential at core
  the test charge radii are     0.9892
  (the norm of the test charge is              1.0000)
       1 -83.2562       2 -83.2562       3 -83.2562       4 -83.2562       5 -83.2562
       6 -83.2562       7 -83.2562       8 -83.2562
 
 
 
 E-fermi :   6.1054     XC(G=0):  -9.4111     alpha+bet :-11.9779


 k-point     1 :       0.0000    0.0000    0.0000
  band No.  band energies     occupation 
      1      -6.1339      2.00000
      2      -1.9901      2.00000
      3      -1.9901      2.00000
      4      -1.9901      2.00000
      5      -1.9901      2.00000
      6      -1.9901      2.00000
      7      -1.9901      2.00000
      8       2.9742      2.00000
      9       2.9742      2.00000
     10       2.9742      2.00000
     11       2.9742      2.00000
     12       2.9742      2.00000
     13       2.9742      2.00000
     14       5.8220      1.99994
     15       5.8220      1.99994
     16       5.8220      1.99994
     17       6.5326      0.00000
     18       6.5326      0.00000
     19       6.5326      0.00000
     20       6.5326      0.00000
     21       6.5326      0.00000
     22       6.5326      0.00000
     23       8.3889      0.00000
     24       8.3889      0.00000
     25       8.3889      0.00000

 k-point     2 :       0.0909    0.0000    0.0000
  band No.  band energies     occupation 
      1      -6.0977      2.00000
      2      -2.6709      2.00000
      3      -1.9782      2.00000
      4      -1.9782      2.00000
      5      -1.9782      2.00000
      6      -1.9782      2.00000
      7      -1.2664      2.00000
      8       2.8699      2.00000
      9       2.8699      2.00000
     10       2.8699      2.00000
     11       2.8699      2.00000
     12       3.0068      2.00000
     13       3.0068      2.00000
     14       5.5880      2.00000
     15       5.6750      2.00000
     16       5.6750      2.00000
     17       6.4188      0.00001
     18       6.7281      0.00000
     19       6.7281      0.00000
     20       6.7281      0.00000
     21       6.7281      0.00000
     22       6.7442      0.00000
     23       8.3011      0.00000
     24       8.5804      0.00000
     25       8.5804      0.00000

 k-point     3 :       0.1818    0.0000    0.0000
  band No.  band energies     occupation 
      1      -5.9894      2.00000
      2      -3.3020      2.00000
      3      -1.9454      2.00000
      4      -1.9454      2.00000
      5      -1.9454      2.00000
      6      -1.9454      2.00000
      7      -0.5070      2.00000
      8       2.6214      2.00000
      9       2.6214      2.00000
     10       2.6214      2.00000
     11       2.6214      2.00000
     12       3.1044      2.00000
     13       3.1044      2.00000
     14       5.0208      2.00000
     15       5.3275      2.00000
     16       5.3275      2.00000
     17       6.3973      0.00004
     18       7.0581      0.00000
     19       7.2517      0.00000
     20       7.2517      0.00000
     21       7.2517      0.00000
     22       7.2517      0.00000
     23       8.0680      0.00000
     24       9.0608      0.00000
     25       9.0608      0.00000

 k-point     4 :       0.2727    0.0000    0.0000
  band No.  band energies     occupation 
      1      -5.8093      2.00000
      2      -3.8783      2.00000
      3      -1.9005      2.00000
      4      -1.9005      2.00000
      5      -1.9005      2.00000
      6      -1.9005      2.00000
      7       0.2797      2.00000
      8       2.3424      2.00000
      9       2.3424      2.00000
     10       2.3424      2.00000
     11       2.3424      2.00000
     12       3.2659      2.00000
     13       3.2659      2.00000
     14       4.3025      2.00000
     15       4.9111      2.00000
     16       4.9111      2.00000
     17       6.4624      0.00000
     18       7.4771      0.00000
     19       7.7539      0.00000
     20       7.9946      0.00000
     21       7.9946      0.00000
     22       7.9946      0.00000
     23       7.9946      0.00000
     24       9.6964      0.00000
     25       9.6964      0.00000

 k-point     5 :       0.3636    0.0000    0.0000
  band No.  band energies     occupation 
      1      -5.5584      2.00000
      2      -4.3953      2.00000
      3      -1.8570      2.00000
      4      -1.8570      2.00000
      5      -1.8570      2.00000
      6      -1.8570      2.00000
      7       1.0849      2.00000
      8       2.1156      2.00000
      9       2.1156      2.00000
     10       2.1156      2.00000
     11       2.1156      2.00000
     12       3.4897      2.00000
     13       3.4897      2.00000
     14       3.5221      2.00000
     15       4.4952      2.00000
     16       4.4952      2.00000
     17       6.6070      0.00000
     18       7.4173      0.00000
     19       8.0003      0.00000
     20       8.8770      0.00000
     21       8.8770      0.00000
     22       8.8770      0.00000
     23       8.8770      0.00000
     24       9.9591      0.00000
     25      10.4151      0.00000

 k-point     6 :       0.4545    0.0000    0.0000
  band No.  band energies     occupation 
      1      -5.2379      2.00000
      2      -4.8494      2.00000
      3      -1.8300      2.00000
      4      -1.8300      2.00000
      5      -1.8300      2.00000
      6      -1.8300      2.00000
      7       1.8998      2.00000
      8       1.9902      2.00000
      9       1.9902      2.00000
     10       1.9902      2.00000
     11       1.9902      2.00000
     12       2.7157      2.00000
     13       3.7729      2.00000
     14       3.7729      2.00000
     15       4.1108      2.00000
     16       4.1108      2.00000
     17       6.8228      0.00000
     18       7.0984      0.00000
     19       8.6187      0.00000
     20       9.3034      0.00000
     21       9.8105      0.00000
     22       9.8105      0.00000
     23       9.8105      0.00000
     24       9.8105      0.00000
     25      11.1425      0.00000

 k-point     7 :       0.0909    0.0909    0.0000
  band No.  band energies     occupation 
      1      -6.0616      2.00000
      2      -2.6518      2.00000
      3      -2.6518      2.00000
      4      -2.0235      2.00000
      5      -1.9119      2.00000
      6      -1.2646      2.00000
      7      -1.2646      2.00000
      8       2.5624      2.00000
      9       2.8872      2.00000
     10       2.8872      2.00000
     11       2.9222      2.00000
     12       2.9222      2.00000
     13       3.0321      2.00000
     14       5.1917      2.00000
     15       5.5279      2.00000
     16       5.7895      1.99999
     17       6.5995      0.00000
     18       6.6229      0.00000
     19       6.6229      0.00000
     20       6.9292      0.00000
     21       6.9292      0.00000
     22       7.1867      0.00000
     23       8.4632      0.00000
     24       8.5263      0.00000
     25       8.6062      0.00000

 k-point     8 :       0.1818    0.0909    0.0000
  band No.  band energies     occupation 
      1      -5.9535      2.00000
      2      -3.2780      2.00000
      3      -2.5969      2.00000
      4      -2.0562      2.00000
      5      -1.8219      2.00000
      6      -1.2632      2.00000
      7      -0.5199      2.00000
      8       2.2234      2.00000
      9       2.6016      2.00000
     10       2.7232      2.00000
     11       2.9731      2.00000
     12       2.9857      2.00000
     13       3.0449      2.00000
     14       4.6160      2.00000
     15       5.1794      2.00000
     16       5.5867      2.00000
     17       6.6079      0.00000
     18       6.8601      0.00000
     19       7.1628      0.00000
     20       7.2308      0.00000
     21       7.4315      0.00000
     22       7.8686      0.00000
     23       8.2636      0.00000
     24       8.8768      0.00000
     25       8.9855      0.00000

 k-point     9 :       0.2727    0.0909    0.0000
  band No.  band energies     occupation 
      1      -5.7740      2.00000
      2      -3.8507      2.00000
      3      -2.5124      2.00000
      4      -2.0892      2.00000
      5      -1.7115      2.00000
      6      -1.2725      2.00000
      7       0.2456      2.00000
      8       1.9371      2.00000
      9       2.2723      2.00000
     10       2.5117      2.00000
     11       2.7960      2.00000
     12       3.1261      2.00000
     13       3.2385      2.00000
     14       3.9692      2.00000
     15       4.7614      2.00000
     16       5.1680      2.00000
     17       6.6773      0.00000
     18       7.4442      0.00000
     19       7.6363      0.00000
     20       7.9196      0.00000
     21       7.9576      0.00000
     22       8.1546      0.00000
     23       8.6980      0.00000
     24       9.3837      0.00000
     25       9.6296      0.00000

 k-point    10 :       0.3636    0.0909    0.0000
  band No.  band energies     occupation 
      1      -5.5238      2.00000
      2      -4.3650      2.00000
      3      -2.4095      2.00000
      4      -2.1368      2.00000
      5      -1.5899      2.00000
      6      -1.3060      2.00000
      7       1.0202      2.00000
      8       1.7542      2.00000
      9       1.9826      2.00000
     10       2.3655      2.00000
     11       2.5747      2.00000
     12       3.2762      2.00000
     13       3.3440      2.00000
     14       3.5028      2.00000
     15       4.3443      2.00000
     16       4.6917      2.00000
     17       6.8240      0.00000
     18       7.6274      0.00000
     19       8.1453      0.00000
     20       8.2411      0.00000
     21       8.8132      0.00000
     22       9.0181      0.00000
     23       9.6219      0.00000
     24       9.8538      0.00000
     25      10.3666      0.00000

 k-point    11 :       0.4545    0.0909    0.0000
  band No.  band energies     occupation 
      1      -5.2043      2.00000
      2      -4.8172      2.00000
      3      -2.3028      2.00000
      4      -2.2083      2.00000
      5      -1.4715      2.00000
      6      -1.3728      2.00000
      7       1.7010      2.00000
      8       1.7820      2.00000
      9       1.7915      2.00000
     10       2.3261      2.00000
     11       2.4024      2.00000
     12       2.5472      2.00000
     13       3.6236      2.00000
     14       3.8370      2.00000
     15       3.9599      2.00000
     16       4.2372      2.00000
     17       7.0397      0.00000
     18       7.3130      0.00000
     19       8.7485      0.00000
     20       9.1609      0.00000
     21       9.4096      0.00000
     22       9.7841      0.00000
     23       9.8126      0.00000
     24      10.4351      0.00000
     25      10.5207      0.00000

 k-point    12 :       0.1818    0.1818    0.0000
  band No.  band energies     occupation 
      1      -5.8463      2.00000
      2      -3.2073      2.00000
      3      -3.2073      2.00000
      4      -2.1668      2.00000
      5      -1.6777      2.00000
      6      -0.5625      2.00000
      7      -0.5625      2.00000
      8       1.8767      2.00000
      9       2.6601      2.00000
     10       2.6601      2.00000
     11       2.9105      2.00000
     12       2.9105      2.00000
     13       3.2031      2.00000
     14       4.0345      2.00000
     15       4.8277      2.00000
     16       5.6795      2.00000
     17       6.7974      0.00000
     18       7.1593      0.00000
     19       7.1593      0.00000
     20       7.7072      0.00000
     21       7.7072      0.00000
     22       8.6372      0.00000
     23       8.6858      0.00000
     24       8.7831      0.00000
     25       8.8553      0.00000

 k-point    13 :       0.2727    0.1818    0.0000
  band No.  band energies     occupation 
      1      -5.6682      2.00000
      2      -3.7687      2.00000
      3      -3.0945      2.00000
      4      -2.2907      2.00000
      5      -1.5101      2.00000
      6      -0.6437      2.00000
      7       0.1424      2.00000
      8       1.6331      2.00000
      9       2.2945      2.00000
     10       2.7857      2.00000
     11       2.7936      2.00000
     12       3.1859      2.00000
     13       3.2122      2.00000
     14       3.4238      2.00000
     15       4.4059      2.00000
     16       5.4442      2.00000
     17       7.1186      0.00000
     18       7.2352      0.00000
     19       7.9242      0.00000
     20       8.0828      0.00000
     21       8.4047      0.00000
     22       8.4711      0.00000
     23       9.0155      0.00000
     24       9.4512      0.00000
     25       9.5130      0.00000

 k-point    14 :       0.3636    0.1818    0.0000
  band No.  band energies     occupation 
      1      -5.4202      2.00000
      2      -4.2749      2.00000
      3      -2.9477      2.00000
      4      -2.4366      2.00000
      5      -1.3230      2.00000
      6      -0.7696      2.00000
      7       0.8377      2.00000
      8       1.5203      2.00000
      9       1.9584      2.00000
     10       2.7337      2.00000
     11       2.8011      2.00000
     12       2.9983      2.00000
     13       3.0773      2.00000
     14       3.5487      2.00000
     15       3.9865      2.00000
     16       5.0013      2.00000
     17       7.3836      0.00000
     18       7.7556      0.00000
     19       8.1616      0.00000
     20       8.5587      0.00000
     21       8.8224      0.00000
     22       9.2390      0.00000
     23       9.4623      0.00000
     24      10.2070      0.00000
     25      10.4550      0.00000

 k-point    15 :       0.4545    0.1818    0.0000
  band No.  band energies     occupation 
      1      -5.1038      2.00000
      2      -4.7212      2.00000
      3      -2.7788      2.00000
      4      -2.6031      2.00000
      5      -1.1262      2.00000
      6      -0.9355      2.00000
      7       1.5132      2.00000
      8       1.5454      2.00000
      9       1.6985      2.00000
     10       2.1663      2.00000
     11       2.7781      2.00000
     12       2.9069      2.00000
     13       3.2698      2.00000
     14       3.6023      2.00000
     15       3.9908      2.00000
     16       4.4896      2.00000
     17       7.5960      0.00000
     18       7.8609      0.00000
     19       8.5953      0.00000
     20       9.1242      0.00000
     21       9.5056      0.00000
     22       9.6782      0.00000
     23       9.8050      0.00000
     24      10.2812      0.00000
     25      10.3869      0.00000

 k-point    16 :       0.2727    0.2727    0.0000
  band No.  band energies     occupation 
      1      -5.4926      2.00000
      2      -3.6356      2.00000
      3      -3.6356      2.00000
      4      -2.5130      2.00000
      5      -1.2885      2.00000
      6      -0.0279      2.00000
      7      -0.0279      2.00000
      8       1.4590      2.00000
      9       2.4023      2.00000
     10       2.4023      2.00000
     11       2.8513      2.00000
     12       3.1643      2.00000
     13       3.1643      2.00000
     14       3.4790      2.00000
     15       3.9806      2.00000
     16       5.4657      2.00000
     17       7.1177      0.00000
     18       8.0026      0.00000
     19       8.0026      0.00000
     20       8.7493      0.00000
     21       8.7493      0.00000
     22       8.8836      0.00000
     23       9.0559      0.00000
     24       9.3046      0.00000
     25      10.4107      0.00000

 k-point    17 :       0.3636    0.2727    0.0000
  band No.  band energies     occupation 
      1      -5.2486      2.00000
      2      -4.1271      2.00000
      3      -3.4570      2.00000
      4      -2.7540      2.00000
      5      -1.0444      2.00000
      6      -0.2533      2.00000
      7       0.5677      2.00000
      8       1.4234      2.00000
      9       2.0333      2.00000
     10       2.2793      2.00000
     11       2.5897      2.00000
     12       3.2080      2.00000
     13       3.5372      2.00000
     14       3.5596      2.00000
     15       3.6357      2.00000
     16       5.1884      2.00000
     17       7.4908      0.00000
     18       8.1479      0.00000
     19       8.8749      0.00000
     20       8.8992      0.00000
     21       9.0453      0.00000
     22       9.1903      0.00000
     23       9.5282      0.00000
     24       9.9933      0.00000
     25      10.1385      0.00000

 k-point    18 :       0.4545    0.2727    0.0000
  band No.  band energies     occupation 
      1      -4.9377      2.00000
      2      -4.5628      2.00000
      3      -3.2418      2.00000
      4      -3.0023      2.00000
      5      -0.7820      2.00000
      6      -0.5123      2.00000
      7       1.1449      2.00000
      8       1.5192      2.00000
      9       1.7122      2.00000
     10       1.7296      2.00000
     11       2.8503      2.00000
     12       3.1771      2.00000
     13       3.3146      2.00000
     14       3.4482      2.00000
     15       4.1702      2.00000
     16       4.7157      2.00000
     17       8.1684      0.00000
     18       8.3513      0.00000
     19       8.6003      0.00000
     20       9.0332      0.00000
     21       9.4168      0.00000
     22       9.7025      0.00000
     23       9.8805      0.00000
     24       9.9585      0.00000
     25      10.3750      0.00000

 k-point    19 :       0.3636    0.3636    0.0000
  band No.  band energies     occupation 
      1      -5.0104      2.00000
      2      -3.9257      2.00000
      3      -3.9257      2.00000
      4      -3.0772      2.00000
      5      -0.7465      2.00000
      6       0.2473      2.00000
      7       0.2473      2.00000
      8       1.4581      2.00000
      9       1.7556      2.00000
     10       2.1979      2.00000
     11       2.1979      2.00000
     12       3.1394      2.00000
     13       3.7562      2.00000
     14       3.7562      2.00000
     15       3.8441      2.00000
     16       5.1371      2.00000
     17       7.5411      0.00000
     18       8.8169      0.00000
     19       9.0364      0.00000
     20       9.0364      0.00000
     21       9.5114      0.00000
     22       9.5115      0.00000
     23       9.5721      0.00000
     24       9.8716      0.00000
     25      10.0204      0.00000

 k-point    20 :       0.4545    0.3636    0.0000
  band No.  band energies     occupation 
      1      -4.7081      2.00000
      2      -4.3449      2.00000
      3      -3.6770      2.00000
      4      -3.3900      2.00000
      5      -0.4273      2.00000
      6      -0.0918      2.00000
      7       0.7424      2.00000
      8       1.2430      2.00000
      9       1.6104      2.00000
     10       1.8633      2.00000
     11       2.4436      2.00000
     12       2.7613      2.00000
     13       3.8789      2.00000
     14       3.9395      2.00000
     15       4.3225      2.00000
     16       4.8206      2.00000
     17       7.9502      0.00000
     18       8.6473      0.00000
     19       8.8548      0.00000
     20       9.1172      0.00000
     21       9.2241      0.00000
     22       9.4457      0.00000
     23      10.0060      0.00000
     24      10.4813      0.00000
     25      10.6399      0.00000

 k-point    21 :       0.4545    0.4545    0.0000
  band No.  band energies     occupation 
      1      -4.4179      2.00000
      2      -4.0720      2.00000
      3      -4.0720      2.00000
      4      -3.7507      2.00000
      5      -0.0547      2.00000
      6       0.3373      2.00000
      7       0.3373      2.00000
      8       0.7820      2.00000
      9       1.8048      2.00000
     10       2.0878      2.00000
     11       2.0878      2.00000
     12       2.3916      2.00000
     13       4.2718      2.00000
     14       4.3843      2.00000
     15       4.3843      2.00000
     16       4.7210      2.00000
     17       8.0288      0.00000
     18       8.4417      0.00000
     19       8.4417      0.00000
     20       8.5000      0.00000
     21      10.1680      0.00000
     22      10.1680      0.00000
     23      10.2320      0.00000
     24      10.5615      0.00000
     25      11.0326      0.00000

 k-point    22 :       0.0909    0.0909    0.0909
  band No.  band energies     occupation 
      1      -6.0256      2.00000
      2      -2.6358      2.00000
      3      -2.6358      2.00000
      4      -2.6358      2.00000
      5      -1.2633      2.00000
      6      -1.2633      2.00000
      7      -1.2633      2.00000
      8       2.6038      2.00000
      9       2.6038      2.00000
     10       2.6038      2.00000
     11       3.0643      2.00000
     12       3.0643      2.00000
     13       3.0643      2.00000
     14       4.8367      2.00000
     15       5.6546      2.00000
     16       5.6546      2.00000
     17       6.6142      0.00000
     18       6.6142      0.00000
     19       6.6142      0.00000
     20       7.2668      0.00000
     21       7.2668      0.00000
     22       7.2668      0.00000
     23       8.4195      0.00000
     24       8.6358      0.00000
     25       8.6358      0.00000

 k-point    23 :       0.1818    0.0909    0.0909
  band No.  band energies     occupation 
      1      -5.9178      2.00000
      2      -3.2554      2.00000
      3      -2.5909      2.00000
      4      -2.5909      2.00000
      5      -1.2616      2.00000
      6      -1.2616      2.00000
      7      -0.5364      2.00000
      8       2.2730      2.00000
      9       2.2730      2.00000
     10       2.7286      2.00000
     11       3.0225      2.00000
     12       3.0225      2.00000
     13       3.1608      2.00000
     14       4.2710      2.00000
     15       5.3286      2.00000
     16       5.5272      2.00000
     17       6.6695      0.00000
     18       6.8912      0.00000
     19       6.8912      0.00000
     20       7.4951      0.00000
     21       7.9285      0.00000
     22       7.9285      0.00000
     23       8.3614      0.00000
     24       8.6865      0.00000
     25       9.0734      0.00000

 k-point    24 :       0.2727    0.0909    0.0909
  band No.  band energies     occupation 
      1      -5.7388      2.00000
      2      -3.8239      2.00000
      3      -2.5272      2.00000
      4      -2.5272      2.00000
      5      -1.2651      2.00000
      6      -1.2651      2.00000
      7       0.2039      2.00000
      8       1.9911      2.00000
      9       1.9911      2.00000
     10       2.8478      2.00000
     11       2.8478      2.00000
     12       2.9382      2.00000
     13       3.3203      2.00000
     14       3.6589      2.00000
     15       4.9301      2.00000
     16       5.1160      2.00000
     17       6.7812      0.00000
     18       7.4781      0.00000
     19       7.4781      0.00000
     20       7.8532      0.00000
     21       8.1045      0.00000
     22       8.7493      0.00000
     23       8.7493      0.00000
     24       9.1334      0.00000
     25       9.6546      0.00000

 k-point    25 :       0.3636    0.0909    0.0909
  band No.  band energies     occupation 
      1      -5.4893      2.00000
      2      -4.3353      2.00000
      3      -2.4628      2.00000
      4      -2.4628      2.00000
      5      -1.2755      2.00000
      6      -1.2755      2.00000
      7       0.9425      2.00000
      8       1.7988      2.00000
      9       1.7988      2.00000
     10       2.6562      2.00000
     11       2.6562      2.00000
     12       3.0220      2.00000
     13       3.2342      2.00000
     14       3.5411      2.00000
     15       4.5269      2.00000
     16       4.5963      2.00000
     17       6.9548      0.00000
     18       7.7853      0.00000
     19       8.2743      0.00000
     20       8.2743      0.00000
     21       8.3281      0.00000
     22       9.6645      0.00000
     23       9.6645      0.00000
     24       9.7019      0.00000
     25      10.3094      0.00000

 k-point    26 :       0.4545    0.0909    0.0909
  band No.  band energies     occupation 
      1      -5.1709      2.00000
      2      -4.7854      2.00000
      3      -2.4210      2.00000
      4      -2.4210      2.00000
      5      -1.2861      2.00000
      6      -1.2861      2.00000
      7       1.6644      2.00000
      8       1.7057      2.00000
      9       1.7057      2.00000
     10       2.3586      2.00000
     11       2.5361      2.00000
     12       2.5361      2.00000
     13       3.6167      2.00000
     14       3.8199      2.00000
     15       4.0785      2.00000
     16       4.1515      2.00000
     17       7.1874      0.00000
     18       7.4698      0.00000
     19       8.9041      0.00000
     20       9.1892      0.00000
     21       9.1892      0.00000
     22       9.5299      0.00000
     23      10.1765      0.00000
     24      10.1767      0.00000
     25      10.7058      0.00000

 k-point    27 :       0.1818    0.1818    0.0909
  band No.  band energies     occupation 
      1      -5.8109      2.00000
      2      -3.1895      2.00000
      3      -3.1895      2.00000
      4      -2.5791      2.00000
      5      -1.2550      2.00000
      6      -0.5890      2.00000
      7      -0.5890      2.00000
      8       1.9463      2.00000
      9       2.4218      2.00000
     10       2.4218      2.00000
     11       3.1335      2.00000
     12       3.1335      2.00000
     13       3.2341      2.00000
     14       3.7095      2.00000
     15       5.0759      2.00000
     16       5.5768      2.00000
     17       6.8381      0.00000
     18       6.9839      0.00000
     19       6.9839      0.00000
     20       8.1083      0.00000
     21       8.1083      0.00000
     22       8.3958      0.00000
     23       8.6864      0.00000
     24       8.8029      0.00000
     25       9.0995      0.00000

 k-point    28 :       0.2727    0.1818    0.0909
  band No.  band energies     occupation 
      1      -5.6334      2.00000
      2      -3.7446      2.00000
      3      -3.0864      2.00000
      4      -2.5794      2.00000
      5      -1.2344      2.00000
      6      -0.6821      2.00000
      7       0.0806      2.00000
      8       1.7230      2.00000
      9       2.1477      2.00000
     10       2.6671      2.00000
     11       3.0070      2.00000
     12       3.1222      2.00000
     13       3.2468      2.00000
     14       3.3222      2.00000
     15       4.6698      2.00000
     16       5.3558      2.00000
     17       7.1360      0.00000
     18       7.1598      0.00000
     19       7.5784      0.00000
     20       8.4078      0.00000
     21       8.4163      0.00000
     22       8.8930      0.00000
     23       8.9044      0.00000
     24       9.5387      0.00000
     25       9.5571      0.00000

 k-point    29 :       0.3636    0.1818    0.0909
  band No.  band energies     occupation 
      1      -5.3863      2.00000
      2      -4.2469      2.00000
      3      -2.9573      2.00000
      4      -2.6147      2.00000
      5      -1.1834      2.00000
      6      -0.8111      2.00000
      7       0.7297      2.00000
      8       1.6239      2.00000
      9       1.9249      2.00000
     10       2.5353      2.00000
     11       2.8995      2.00000
     12       2.9980      2.00000
     13       3.1239      2.00000
     14       3.5954      2.00000
     15       4.2375      2.00000
     16       4.9166      2.00000
     17       7.3433      0.00000
     18       7.7939      0.00000
     19       8.1890      0.00000
     20       8.3723      0.00000
     21       8.8242      0.00000
     22       9.3378      0.00000
     23       9.7872      0.00000
     24      10.1516      0.00000
     25      10.4776      0.00000

 k-point    30 :       0.4545    0.1818    0.0909
  band No.  band energies     occupation 
      1      -5.0713      2.00000
      2      -4.6904      2.00000
      3      -2.8199      2.00000
      4      -2.6980      2.00000
      5      -1.0887      2.00000
      6      -0.9563      2.00000
      7       1.3507      2.00000
      8       1.6422      2.00000
      9       1.7521      2.00000
     10       1.9485      2.00000
     11       2.8864      2.00000
     12       2.9760      2.00000
     13       3.3887      2.00000
     14       3.8074      2.00000
     15       3.9626      2.00000
     16       4.4187      2.00000
     17       7.5985      0.00000
     18       7.8889      0.00000
     19       8.6298      0.00000
     20       9.2622      0.00000
     21       9.3423      0.00000
     22       9.6373      0.00000
     23       9.7796      0.00000
     24      10.2672      0.00000
     25      10.3148      0.00000

 k-point    31 :       0.2727    0.2727    0.0909
  band No.  band energies     occupation 
      1      -5.4586      2.00000
      2      -3.6169      2.00000
[...]
     20       8.1007      0.00000
     21       9.1409      0.00000
     22       9.3270      0.00000
     23       9.3270      0.00000
     24       9.3335      0.00000
     25      10.6337      0.00000

 k-point    45 :       0.4545    0.3636    0.1818
  band No.  band energies     occupation 
      1      -4.6906      2.00000
      2      -4.3508      2.00000
      3      -3.7642      2.00000
      4      -3.5532      2.00000
      5      -0.9329      2.00000
      6      -0.6984      2.00000
      7      -0.0220      2.00000
      8       0.3905      2.00000
      9       2.1628      2.00000
     10       2.3802      2.00000
     11       3.0028      2.00000
     12       3.4007      2.00000
     13       3.8139      2.00000
     14       3.8580      2.00000
     15       4.1522      2.00000
     16       4.5767      2.00000
     17       7.8521      0.00000
     18       8.1556      0.00000
     19       8.2715      0.00000
     20       8.4653      0.00000
     21       8.9099      0.00000
     22       8.9498      0.00000
     23       8.9762      0.00000
     24       9.7389      0.00000
     25       9.7608      0.00000

 k-point    46 :       0.4545    0.4545    0.1818
  band No.  band energies     occupation 
      1      -4.4223      2.00000
      2      -4.1091      2.00000
      3      -4.1091      2.00000
      4      -3.8364      2.00000
      5      -0.7004      2.00000
      6      -0.3915      2.00000
      7      -0.3915      2.00000
      8      -0.0266      2.00000
      9       2.4237      2.00000
     10       2.7107      2.00000
     11       2.7107      2.00000
     12       3.0530      2.00000
     13       4.1493      2.00000
     14       4.2407      2.00000
     15       4.2407      2.00000
     16       4.5292      2.00000
     17       7.8783      0.00000
     18       8.0964      0.00000
     19       8.1815      0.00000
     20       8.1815      0.00000
     21       9.1666      0.00000
     22       9.1666      0.00000
     23       9.4135      0.00000
     24       9.5014      0.00000
     25       9.8741      0.00000

 k-point    47 :       0.2727    0.2727    0.2727
  band No.  band energies     occupation 
      1      -5.2729      2.00000
      2      -3.6105      2.00000
      3      -3.6105      2.00000
      4      -3.6105      2.00000
      5      -0.7410      2.00000
      6      -0.7410      2.00000
      7      -0.7410      2.00000
      8       1.3303      2.00000
      9       2.2997      2.00000
     10       2.2997      2.00000
     11       2.2997      2.00000
     12       3.5621      2.00000
     13       3.5621      2.00000
     14       3.5621      2.00000
     15       4.7935      2.00000
     16       4.7935      2.00000
     17       7.2937      0.00000
     18       7.2937      0.00000
     19       7.2937      0.00000
     20       7.4883      0.00000
     21       9.1295      0.00000
     22       9.1295      0.00000
     23      10.5115      0.00000
     24      10.5115      0.00000
     25      10.5115      0.00000

 k-point    48 :       0.3636    0.2727    0.2727
  band No.  band energies     occupation 
      1      -5.0450      2.00000
      2      -4.0287      2.00000
      3      -3.5377      2.00000
      4      -3.5377      2.00000
      5      -0.9594      2.00000
      6      -0.9594      2.00000
      7      -0.4088      2.00000
      8       0.8291      2.00000
      9       2.3696      2.00000
     10       2.3696      2.00000
     11       2.9021      2.00000
     12       3.6452      2.00000
     13       3.6452      2.00000
     14       3.7485      2.00000
     15       4.5191      2.00000
     16       4.6471      2.00000
     17       7.5394      0.00000
     18       7.5816      0.00000
     19       7.6245      0.00000
     20       7.6245      0.00000
     21       8.9517      0.00000
     22       9.3775      0.00000
     23       9.9371      0.00000
     24       9.9371      0.00000
     25      10.0043      0.00000

 k-point    49 :       0.4545    0.2727    0.2727
  band No.  band energies     occupation 
      1      -4.7575      2.00000
      2      -4.4159      2.00000
      3      -3.4903      2.00000
      4      -3.4903      2.00000
      5      -1.0868      2.00000
      6      -1.0868      2.00000
      7      -0.0408      2.00000
      8       0.3709      2.00000
      9       2.4230      2.00000
     10       2.4230      2.00000
     11       3.5475      2.00000
     12       3.6515      2.00000
     13       3.6515      2.00000
     14       3.9778      2.00000
     15       4.1671      2.00000
     16       4.2397      2.00000
     17       7.7776      0.00000
     18       7.8264      0.00000
     19       8.2236      0.00000
     20       8.2236      0.00000
     21       8.9132      0.00000
     22       9.0511      0.00000
     23       9.0511      0.00000
     24       9.3189      0.00000
     25       9.7017      0.00000

 k-point    50 :       0.3636    0.3636    0.2727
  band No.  band energies     occupation 
      1      -4.8278      2.00000
      2      -3.8928      2.00000
      3      -3.8928      2.00000
      4      -3.5587      2.00000
      5      -1.1022      2.00000
      6      -0.7353      2.00000
      7      -0.7353      2.00000
      8       0.3519      2.00000
      9       2.5723      2.00000
     10       2.9589      2.00000
     11       2.9589      2.00000
     12       3.8634      2.00000
     13       3.8634      2.00000
     14       3.8766      2.00000
     15       4.2996      2.00000
     16       4.7212      2.00000
     17       7.4904      0.00000
     18       7.6348      0.00000
     19       7.8239      0.00000
     20       7.8239      0.00000
     21       9.0593      0.00000
     22       9.2174      0.00000
     23       9.3500      0.00000
     24       9.3500      0.00000
     25       9.8800      0.00000

 k-point    51 :       0.4545    0.3636    0.2727
  band No.  band energies     occupation 
      1      -4.5567      2.00000
      2      -4.2404      2.00000
      3      -3.7510      2.00000
      4      -3.6313      2.00000
      5      -1.1130      2.00000
      6      -0.9828      2.00000
      7      -0.4383      2.00000
      8      -0.0738      2.00000
      9       2.7593      2.00000
     10       2.9022      2.00000
     11       3.5158      2.00000
     12       3.9464      2.00000
     13       3.9609      2.00000
     14       3.9708      2.00000
     15       4.1582      2.00000
     16       4.5038      2.00000
     17       7.7128      0.00000
     18       7.9186      0.00000
     19       7.9388      0.00000
     20       8.2394      0.00000
     21       8.7609      0.00000
     22       8.9208      0.00000
     23       8.9375      0.00000
     24       9.2047      0.00000
     25       9.4334      0.00000

 k-point    52 :       0.4545    0.4545    0.2727
  band No.  band energies     occupation 
      1      -4.3115      2.00000
      2      -4.0355      2.00000
      3      -4.0355      2.00000
      4      -3.8227      2.00000
      5      -1.0016      2.00000
      6      -0.7679      2.00000
      7      -0.7679      2.00000
      8      -0.4592      2.00000
      9       3.0571      2.00000
     10       3.3171      2.00000
     11       3.3171      2.00000
     12       3.6656      2.00000
     13       4.2169      2.00000
     14       4.2821      2.00000
     15       4.2821      2.00000
     16       4.5208      2.00000
     17       7.7517      0.00000
     18       7.8706      0.00000
     19       7.9723      0.00000
     20       7.9723      0.00000
     21       8.8967      0.00000
     22       8.8967      0.00000
     23       9.1281      0.00000
     24       9.2128      0.00000
     25       9.2595      0.00000

 k-point    53 :       0.3636    0.3636    0.3636
  band No.  band energies     occupation 
      1      -4.6261      2.00000
      2      -3.8185      2.00000
      3      -3.8185      2.00000
      4      -3.8185      2.00000
      5      -1.0094      2.00000
      6      -1.0094      2.00000
      7      -1.0094      2.00000
      8      -0.1017      2.00000
      9       3.2310      2.00000
     10       3.2310      2.00000
     11       3.2310      2.00000
     12       4.0248      2.00000
     13       4.0248      2.00000
     14       4.0248      2.00000
     15       4.5647      2.00000
     16       4.5647      2.00000
     17       7.2288      0.00000
     18       7.7630      0.00000
     19       7.7630      0.00000
     20       7.7630      0.00000
     21       9.0793      0.00000
     22       9.0793      0.00000
     23       9.2282      0.00000
     24       9.2282      0.00000
     25       9.2282      0.00000

 k-point    54 :       0.4545    0.3636    0.3636
  band No.  band energies     occupation 
      1      -4.3799      2.00000
      2      -4.1032      2.00000
      3      -3.7701      2.00000
      4      -3.7701      2.00000
      5      -1.1627      2.00000
      6      -1.1627      2.00000
      7      -0.7996      2.00000
      8      -0.4911      2.00000
      9       3.3700      2.00000
     10       3.3700      2.00000
     11       3.8736      2.00000
     12       4.1260      2.00000
     13       4.1260      2.00000
     14       4.1988      2.00000
     15       4.3845      2.00000
     16       4.3860      2.00000
     17       7.3659      0.00000
     18       7.6824      0.00000
     19       7.8887      0.00000
     20       7.8887      0.00000
     21       8.8616      0.00000
     22       8.8616      0.00000
     23       8.8818      0.00000
     24       8.9212      0.00000
     25       9.2181      0.00000

 k-point    55 :       0.4545    0.4545    0.3636
  band No.  band energies     occupation 
      1      -4.1739      2.00000
      2      -3.9606      2.00000
      3      -3.9606      2.00000
      4      -3.8412      2.00000
      5      -1.1915      2.00000
      6      -1.0625      2.00000
      7      -1.0625      2.00000
      8      -0.8296      2.00000
      9       3.6995      2.00000
     10       3.8823      2.00000
     11       3.8823      2.00000
     12       4.2006      2.00000
     13       4.2977      2.00000
     14       4.3258      2.00000
     15       4.3258      2.00000
     16       4.4955      2.00000
     17       7.3174      0.00000
     18       7.5856      0.00000
     19       7.5856      0.00000
     20       7.6532      0.00000
     21       8.8678      0.00000
     22       8.8678      0.00000
     23       8.9400      0.00000
     24       9.0282      0.00000
     25       9.0327      0.00000

 k-point    56 :       0.4545    0.4545    0.4545
  band No.  band energies     occupation 
      1      -4.0311      2.00000
      2      -3.9118      2.00000
      3      -3.9118      2.00000
      4      -3.9118      2.00000
      5      -1.2251      2.00000
      6      -1.2251      2.00000
      7      -1.2251      2.00000
      8      -1.0965      2.00000
      9       4.2324      2.00000
     10       4.2324      2.00000
     11       4.2324      2.00000
     12       4.3789      2.00000
     13       4.3789      2.00000
     14       4.3789      2.00000
     15       4.4478      2.00000
     16       4.4478      2.00000
     17       7.0936      0.00000
     18       7.2751      0.00000
     19       7.2751      0.00000
     20       7.2751      0.00000
     21       8.9159      0.00000
     22       8.9159      0.00000
     23       8.9159      0.00000
     24       8.9771      0.00000
     25       8.9771      0.00000


--------------------------------------------------------------------------------------------------------


 soft charge-density along one line, spin component           1
         0         1         2         3         4         5         6         7         8         9
 total charge-density along one line
 
 pseudopotential strength for first ion, spin component:           1
 18.438  25.724  -0.000  -0.000   0.000  -0.000  -0.000   0.000
 25.724  35.895  -0.000  -0.000   0.000  -0.000  -0.000   0.000
 -0.000  -0.000   4.181  -0.000   0.000   7.791  -0.000   0.000
 -0.000  -0.000  -0.000   4.181  -0.000  -0.000   7.791  -0.000
  0.000   0.000   0.000  -0.000   4.181   0.000  -0.000   7.791
 -0.000  -0.000   7.791  -0.000   0.000  14.529  -0.000   0.000
 -0.000  -0.000  -0.000   7.791  -0.000  -0.000  14.529  -0.000
  0.000   0.000   0.000  -0.000   7.791   0.000  -0.000  14.529
 total augmentation occupancy for first ion, spin component:           1
  5.529  -2.065   0.000   0.000   0.000  -0.000   0.000   0.000
 -2.065   0.888   0.000  -0.000  -0.000   0.000   0.000   0.000
 -0.000   0.000   2.899   0.000   0.000  -0.648  -0.000  -0.000
  0.000   0.000   0.000   2.899   0.000  -0.000  -0.648  -0.000
 -0.000   0.000   0.000   0.000   2.899  -0.000  -0.000  -0.648
 -0.000   0.000  -0.648  -0.000  -0.000   0.153   0.000   0.000
  0.000   0.000  -0.000  -0.648  -0.000   0.000   0.153   0.000
 -0.000  -0.000  -0.000  -0.000  -0.648   0.000   0.000   0.153


------------------------ aborting loop because EDIFF is reached ----------------------------------------


    CHARGE:  cpu time    0.1043: real time    0.1090
    FORLOC:  cpu time    0.0011: real time    0.0011
    FORNL :  cpu time    0.1600: real time    0.1647
    STRESS:  cpu time    0.3250: real time    0.3283
    FORCOR:  cpu time    0.0126: real time    0.0128
    FORHAR:  cpu time    0.0035: real time    0.0036
    MIXING:  cpu time    0.0007: real time    0.0007
    OFIELD:  cpu time    0.0000: real time    0.0000

  FORCE on cell =-STRESS in cart. coord.  units (eV):
  Direction    XX          YY          ZZ          XY          YZ          ZX
  --------------------------------------------------------------------------------------
  Alpha Z    13.16676    13.16676    13.16676
  Ewald    -302.54809  -302.54809  -302.54809    -0.00000    -0.00000     0.00000
  Hartree    20.23605    20.23605    20.23605    -0.00000    -0.00000    -0.00000
  E(xc)    -100.97227  -100.97227  -100.97227    -0.00000     0.00000     0.00000
  Local    -118.02451  -118.02451  -118.02451    -0.00000     0.00000    -0.00000
  n-local   309.64808   313.12253   306.51251    -2.94206    -2.29374    -1.50593
  augment   -46.59911   -46.59911   -46.59911     0.00000    -0.00000    -0.00000
  Kinetic   217.72880   229.52605   227.59924    -3.73590    -5.28118    -2.56045
  Fock        0.00000     0.00000     0.00000     0.00000     0.00000     0.00000
  -------------------------------------------------------------------------------------
  Total      -0.02876    -0.02876    -0.02876     0.00000    -0.00000     0.00000
  in kB      -0.28160    -0.28160    -0.28160     0.00000    -0.00000     0.00000
  external pressure =       -0.28 kB  Pullay stress =        0.00 kB


 VOLUME and BASIS-vectors are now :
 -----------------------------------------------------------------------------
  energy-cutoff  :      700.00
  volume of cell :      163.63
      direct lattice vectors                 reciprocal lattice vectors
     5.469553051 -0.000000000  0.000000000     0.182830295 -0.000000000  0.000000000
     0.000000000  5.469553051  0.000000000     0.000000000  0.182830295 -0.000000000
    -0.000000000  0.000000000  5.469553051    -0.000000000 -0.000000000  0.182830295

  length of vectors
     5.469553051  5.469553051  5.469553051     0.182830295  0.182830295  0.182830295


 FORCES acting on ions
    electron-ion (+dipol)            ewald-force                    non-local-force                 convergence-correction
 -----------------------------------------------------------------------------------------------
   -.616E-13 -.180E-14 0.133E-13   -.711E-14 -.142E-13 -.355E-14   -.165E-16 -.373E-16 -.156E-16   0.157E-14 -.654E-16 -.365E-14
   -.636E-13 -.156E-13 -.167E-14   -.711E-14 -.142E-13 0.000E+00   0.520E-17 0.273E-16 -.226E-16   0.136E-14 0.718E-15 -.382E-14
   -.724E-13 -.104E-14 -.201E-12   -.711E-14 -.142E-13 0.000E+00   -.868E-17 -.738E-17 -.278E-16   0.926E-15 0.407E-15 -.413E-14
   -.722E-13 -.106E-12 -.149E-12   -.711E-14 -.142E-13 -.355E-14   -.252E-16 0.113E-16 -.347E-17   0.980E-15 0.869E-15 -.381E-14
   0.523E-13 -.859E-13 0.222E-12   0.297E-14 0.142E-13 0.318E-14   0.260E-16 0.261E-17 0.121E-16   0.972E-16 0.896E-15 -.819E-14
   0.496E-13 0.267E-13 0.430E-12   0.254E-14 0.141E-13 0.317E-14   0.347E-17 0.955E-17 0.156E-16   -.153E-14 0.188E-15 -.842E-14
   0.530E-13 0.264E-12 0.162E-12   0.517E-14 0.144E-13 0.399E-14   -.780E-17 -.182E-16 0.217E-16   -.160E-14 0.125E-14 -.793E-14
   0.637E-13 -.288E-12 0.251E-13   0.344E-14 0.143E-13 0.399E-14   0.130E-16 0.955E-17 0.286E-16   -.149E-15 0.106E-15 -.749E-14
 -----------------------------------------------------------------------------------------------
   -.513E-13 -.208E-12 0.500E-12   -.143E-13 0.164E-15 0.722E-14   -.104E-16 -.260E-17 0.867E-17   0.165E-14 0.437E-14 -.474E-13
 
 
 POSITION                                       TOTAL-FORCE (eV/Angst)
 -----------------------------------------------------------------------------------
     -0.00000     -0.00000     -0.00000         0.000000     -0.000000      0.000000
      0.00000      2.73478      2.73478        -0.000000     -0.000000      0.000000
      2.73478      0.00000      2.73478        -0.000000     -0.000000     -0.000000
      2.73478      2.73478      0.00000         0.000000     -0.000000      0.000000
      1.36739      1.36739      1.36739        -0.000000      0.000000     -0.000000
      4.10216      4.10216      1.36739        -0.000000      0.000000     -0.000000
      4.10216      1.36739      4.10216         0.000000      0.000000     -0.000000
      1.36739      4.10216      4.10216         0.000000     -0.000000      0.000000
 -----------------------------------------------------------------------------------
    total drift:                               -0.000000     -0.000000      0.000000


--------------------------------------------------------------------------------------------------------



  FREE ENERGIE OF THE ION-ELECTRON SYSTEM (eV)
  ---------------------------------------------------
  free  energy   TOTEN  =       -43.40052268 eV

  energy  without entropy=      -43.40052264  energy(sigma->0) =      -43.40052266
 
 d Force = 0.0000000E+00[ 0.000E+00, 0.000E+00]  d Energy = 0.1069471E+00-0.107E+00
 d Force = 0.0000000E+00[ 0.000E+00, 0.000E+00]  d Ewald  = 0.1472338E+02-0.147E+02


--------------------------------------------------------------------------------------------------------


    POTLOK:  cpu time    0.0141: real time    0.0142


--------------------------------------------------------------------------------------------------------




--------------------------------------------------------------------------------------------------------


  
 reached required accuracy - stopping structural energy minimisation
 writing wavefunctions
     LOOP+:  cpu time    8.3347: real time    8.6468
    4ORBIT:  cpu time    0.0000: real time    0.0000

 total amount of memory used by VASP on root node    39821. kBytes
========================================================================

   base      :      30000. kBytes
   nonl-proj :       3155. kBytes
   fftplans  :       1174. kBytes
   grid      :       1637. kBytes
   one-center:          3. kBytes
   wavefun   :       3852. kBytes
 
  
  
 General timing and accounting informations for this job:
 ========================================================
  
                  Total CPU time used (sec):       30.098
                            User time (sec):       29.307
                          System time (sec):        0.791
                         Elapsed time (sec):       31.341
  
                   Maximum memory used (kb):      153992.
                   Average memory used (kb):           0.
  
                          Minor page faults:        40255
                          Major page faults:            0
                 Voluntary context switches:         1681
