<?xml version="1.0" encoding="ISO-8859-1"?>
<modeling>
 <generator>
  <i name="program" type="string">vasp </i>
  <i name="version" type="string">5.4.1  </i>
  <i name="subversion" type="string">05Feb16 (build Feb 24 2020 14:33:01) complex                          parallel </i>
  <i name="platform" type="string">IFC91_ompi </i>
  <i name="date" type="string">2020 02 27 </i>
  <i name="time" type="string">23:42:11 </i>
 </generator>
 <incar>
  <i type="string" name="SYSTEM"> diamond Si</i>
  <i type="int" name="ISTART">     0</i>
  <i type="string" name="PREC">accurate</i>
  <i type="int" name="NSIM">     4</i>
  <i type="int" name="ICHARG">     2</i>
  <i type="int" name="NELM">    60</i>
  <i type="int" name="NELMDL">     3</i>
  <i type="int" name="NELMIN">     0</i>
  <i type="int" name="IBRION">     2</i>
  <i name="EDIFF">      0.00010000</i>
  <i name="EDIFFG">     -0.01000000</i>
  <i type="int" name="NSW">     9</i>
  <i type="int" name="ISIF">     3</i>
  <i name="ENCUT">    700.00000000</i>
  <i name="POTIM">      1.00000000</i>
  <i type="logical" name="LPLANE"> F  </i>
  <i type="int" name="ISMEAR">     0</i>
  <i name="SIGMA">      0.10000000</i>
  <v type="int" name="KPOINT_BSE">    -1     0     0     0</v>
  <i type="int" name="NELM">    60</i>
 </incar>
 <kpoints>
  <generation param="Monkhorst-Pack">
   <v type="int" name="divisions">      11       11       11 </v>
   <v name="usershift">      0.00000000       0.00000000       0.00000000 </v>
   <v name="genvec1">      0.09090909       0.00000000       0.00000000 </v>
   <v name="genvec2">      0.00000000       0.09090909       0.00000000 </v>
   <v name="genvec3">      0.00000000       0.00000000       0.09090909 </v>
   <v name="shift">      0.00000000       0.00000000       0.00000000 </v>
  </generation>
  <varray name="kpointlist" >
   <v>       0.00000000       0.00000000       0.00000000 </v>
   <v>       0.09090909       0.00000000       0.00000000 </v>
   <v>       0.18181818       0.00000000       0.00000000 </v>
   <v>       0.27272727       0.00000000       0.00000000 </v>
   <v>       0.36363636       0.00000000       0.00000000 </v>
   <v>       0.45454545       0.00000000       0.00000000 </v>
   <v>       0.09090909       0.09090909       0.00000000 </v>
   <v>       0.18181818       0.09090909       0.00000000 </v>
   <v>       0.27272727       0.09090909       0.00000000 </v>
   <v>       0.36363636       0.09090909       0.00000000 </v>
   <v>       0.45454545       0.09090909       0.00000000 </v>
   <v>       0.18181818       0.18181818       0.00000000 </v>
   <v>       0.27272727       0.18181818       0.00000000 </v>
   <v>       0.36363636       0.18181818       0.00000000 </v>
   <v>       0.45454545       0.18181818       0.00000000 </v>
   <v>       0.27272727       0.27272727       0.00000000 </v>
   <v>       0.36363636       0.27272727       0.00000000 </v>
   <v>       0.45454545       0.27272727       0.00000000 </v>
   <v>       0.36363636       0.36363636       0.00000000 </v>
   <v>       0.45454545       0.36363636       0.00000000 </v>
   <v>       0.45454545       0.45454545       0.00000000 </v>
   <v>       0.09090909       0.09090909       0.09090909 </v>
   <v>       0.18181818       0.09090909       0.09090909 </v>
   <v>       0.27272727       0.09090909       0.09090909 </v>
   <v>       0.36363636       0.09090909       0.09090909 </v>
   <v>       0.45454545       0.09090909       0.09090909 </v>
   <v>       0.18181818       0.18181818       0.09090909 </v>
   <v>       0.27272727       0.18181818       0.09090909 </v>
   <v>       0.36363636       0.18181818       0.09090909 </v>
   <v>       0.45454545       0.18181818       0.09090909 </v>
   <v>       0.27272727       0.27272727       0.09090909 </v>
   <v>       0.36363636       0.27272727       0.09090909 </v>
   <v>       0.45454545       0.27272727       0.09090909 </v>
   <v>       0.36363636       0.36363636       0.09090909 </v>
   <v>       0.45454545       0.36363636       0.09090909 </v>
   <v>       0.45454545       0.45454545       0.09090909 </v>
   <v>       0.18181818       0.18181818       0.18181818 </v>
   <v>       0.27272727       0.18181818       0.18181818 </v>
   <v>       0.36363636       0.18181818       0.18181818 </v>
   <v>       0.45454545       0.18181818       0.18181818 </v>
   <v>       0.27272727       0.27272727       0.18181818 </v>
   <v>       0.36363636       0.27272727       0.18181818 </v>
   <v>       0.45454545       0.27272727       0.18181818 </v>
   <v>       0.36363636       0.36363636       0.18181818 </v>
   <v>       0.45454545       0.36363636       0.18181818 </v>
   <v>       0.45454545       0.45454545       0.18181818 </v>
   <v>       0.27272727       0.27272727       0.27272727 </v>
   <v>       0.36363636       0.27272727       0.27272727 </v>
   <v>       0.45454545       0.27272727       0.27272727 </v>
   <v>       0.36363636       0.36363636       0.27272727 </v>
   <v>       0.45454545       0.36363636       0.27272727 </v>
   <v>       0.45454545       0.45454545       0.27272727 </v>
   <v>       0.36363636       0.36363636       0.36363636 </v>
   <v>       0.45454545       0.36363636       0.36363636 </v>
   <v>       0.45454545       0.45454545       0.36363636 </v>
   <v>       0.45454545       0.45454545       0.45454545 </v>
  </varray>
  <varray name="weights" >
   <v>       0.00075131 </v>
   <v>       0.00450789 </v>
   <v>       0.00450789 </v>
   <v>       0.00450789 </v>
   <v>       0.00450789 </v>
   <v>       0.00450789 </v>
   <v>       0.00901578 </v>
   <v>       0.01803156 </v>
   <v>       0.01803156 </v>
   <v>       0.01803156 </v>
   <v>       0.01803156 </v>
   <v>       0.00901578 </v>
   <v>       0.01803156 </v>
   <v>       0.01803156 </v>
   <v>       0.01803156 </v>
   <v>       0.00901578 </v>
   <v>       0.01803156 </v>
   <v>       0.01803156 </v>
   <v>       0.00901578 </v>
   <v>       0.01803156 </v>
   <v>       0.00901578 </v>
   <v>       0.00601052 </v>
   <v>       0.01803156 </v>
   <v>       0.01803156 </v>
   <v>       0.01803156 </v>
   <v>       0.01803156 </v>
   <v>       0.01803156 </v>
   <v>       0.03606311 </v>
   <v>       0.03606311 </v>
   <v>       0.03606311 </v>
   <v>       0.01803156 </v>
   <v>       0.03606311 </v>
   <v>       0.03606311 </v>
   <v>       0.01803156 </v>
   <v>       0.03606311 </v>
   <v>       0.01803156 </v>
   <v>       0.00601052 </v>
   <v>       0.01803156 </v>
   <v>       0.01803156 </v>
   <v>       0.01803156 </v>
   <v>       0.01803156 </v>
   <v>       0.03606311 </v>
   <v>       0.03606311 </v>
   <v>       0.01803156 </v>
   <v>       0.03606311 </v>
   <v>       0.01803156 </v>
   <v>       0.00601052 </v>
   <v>       0.01803156 </v>
   <v>       0.01803156 </v>
   <v>       0.01803156 </v>
   <v>       0.03606311 </v>
   <v>       0.01803156 </v>
   <v>       0.00601052 </v>
   <v>       0.01803156 </v>
   <v>       0.01803156 </v>
   <v>       0.00601052 </v>
  </varray>
 </kpoints>
 <parameters>
  <separator name="general" >
   <i type="string" name="SYSTEM">diamond Si</i>
   <i type="logical" name="LCOMPAT"> F  </i>
  </separator>
  <separator name="electronic" >
   <i type="string" name="PREC">accura</i>
   <i name="ENMAX">    700.00000000</i>
   <i name="ENAUG">    322.06900000</i>
   <i name="EDIFF">      0.00010000</i>
   <i type="int" name="IALGO">    38</i>
   <i type="int" name="IWAVPR">    11</i>
   <i type="int" name="NBANDS">    25</i>
   <i name="NELECT">     32.00000000</i>
   <i type="int" name="TURBO">     0</i>
   <i type="int" name="IRESTART">     0</i>
   <i type="int" name="NREBOOT">     0</i>
   <i type="int" name="NMIN">     0</i>
   <i name="EREF">      0.00000000</i>
   <separator name="electronic smearing" >
    <i type="int" name="ISMEAR">     0</i>
    <i name="SIGMA">      0.10000000</i>
    <i name="KSPACING">      0.50000000</i>
    <i type="logical" name="KGAMMA"> T  </i>
   </separator>
   <separator name="electronic projectors" >
    <i type="logical" name="LREAL"> F  </i>
    <v name="ROPT">      0.00000000</v>
    <i type="int" name="LMAXPAW">  -100</i>
    <i type="int" name="LMAXMIX">     2</i>
    <i type="logical" name="NLSPLINE"> F  </i>
   </separator>
   <separator name="electronic startup" >
    <i type="int" name="ISTART">     0</i>
    <i type="int" name="ICHARG">     2</i>
    <i type="int" name="INIWAV">     1</i>
   </separator>
   <separator name="electronic spin" >
    <i type="int" name="ISPIN">     1</i>
    <i type="logical" name="LNONCOLLINEAR"> F  </i>
    <v name="MAGMOM">      1.00000000      1.00000000      1.00000000      1.00000000      1.00000000      1.00000000      1.00000000      1.00000000</v>
    <i name="NUPDOWN">     -1.00000000</i>
    <i type="logical" name="LSORBIT"> F  </i>
    <v name="SAXIS">      0.00000000      0.00000000      1.00000000</v>
    <i type="logical" name="LSPIRAL"> F  </i>
    <v name="QSPIRAL">      0.00000000      0.00000000      0.00000000</v>
    <i type="logical" name="LZEROZ"> F  </i>
   </separator>
   <separator name="electronic exchange-correlation" >
    <i type="logical" name="LASPH"> F  </i>
    <i type="logical" name="LMETAGGA"> F  </i>
   </separator>
   <separator name="electronic convergence" >
    <i type="int" name="NELM">    60</i>
    <i type="int" name="NELMDL">     3</i>
    <i type="int" name="NELMIN">     0</i>
    <i name="ENINI">    700.00000000</i>
    <separator name="electronic convergence detail" >
     <i type="logical" name="LDIAG"> T  </i>
     <i type="logical" name="LSUBROT"> F  </i>
     <i name="WEIMIN">      0.00100000</i>
     <i name="EBREAK">      0.00000100</i>
     <i name="DEPER">      0.30000000</i>
     <i type="int" name="NRMM">     4</i>
     <i name="TIME">      0.40000000</i>
    </separator>
   </separator>
   <separator name="electronic mixer" >
    <i name="AMIX">      0.40000000</i>
    <i name="BMIX">      1.00000000</i>
    <i name="AMIN">      0.10000000</i>
    <i name="AMIX_MAG">      1.60000000</i>
    <i name="BMIX_MAG">      1.00000000</i>
    <separator name="electronic mixer details" >
     <i type="int" name="IMIX">     4</i>
     <i type="logical" name="MIXFIRST"> F  </i>
     <i type="int" name="MAXMIX">   -45</i>
     <i name="WC">    100.00000000</i>
     <i type="int" name="INIMIX">     1</i>
     <i type="int" name="MIXPRE">     1</i>
     <i type="int" name="MREMOVE">     5</i>
    </separator>
   </separator>
   <separator name="electronic dipolcorrection" >
    <i type="logical" name="LDIPOL"> F  </i>
    <i type="logical" name="LMONO"> F  </i>
    <i type="int" name="IDIPOL">     0</i>
    <i name="EPSILON">      1.00000000</i>
    <v name="DIPOL">   -100.00000000   -100.00000000   -100.00000000</v>
    <i name="EFIELD">      0.00000000</i>
   </separator>
  </separator>
  <separator name="grids" >
   <i type="int" name="NGX">    48</i>
   <i type="int" name="NGY">    48</i>
   <i type="int" name="NGZ">    48</i>
   <i type="int" name="NGXF">    96</i>
   <i type="int" name="NGYF">    96</i>
   <i type="int" name="NGZF">    96</i>
   <i type="logical" name="ADDGRID"> F  </i>
  </separator>
  <separator name="ionic" >
   <i type="int" name="NSW">     9</i>
   <i type="int" name="IBRION">     2</i>
   <i type="int" name="ISIF">     3</i>
   <i name="PSTRESS">      0.00000000</i>
   <i name="EDIFFG">     -0.01000000</i>
   <i type="int" name="NFREE">     1</i>
   <i name="POTIM">      1.00000000</i>
   <i name="SMASS">     -3.00000000</i>
   <i name="SCALEE">      1.00000000</i>
  </separator>
  <separator name="ionic md" >
   <i name="TEBEG">      0.00010000</i>
   <i name="TEEND">      0.00010000</i>
   <i type="int" name="NBLOCK">     1</i>
   <i type="int" name="KBLOCK">     9</i>
   <i type="int" name="NPACO">   256</i>
   <i name="APACO">     16.00000000</i>
  </separator>
  <separator name="symmetry" >
   <i type="int" name="ISYM">     2</i>
   <i name="SYMPREC">      0.00001000</i>
  </separator>
  <separator name="dos" >
   <i type="logical" name="LORBIT"> F  </i>
   <v name="RWIGS">     -1.00000000</v>
   <i type="int" name="NEDOS">   301</i>
   <i name="EMIN">     10.00000000</i>
   <i name="EMAX">    -10.00000000</i>
   <i name="EFERMI">      0.00000000</i>
  </separator>
  <separator name="writing" >
   <i type="int" name="NWRITE">     2</i>
   <i type="logical" name="LWAVE"> T  </i>
   <i type="logical" name="LCHARG"> T  </i>
   <i type="logical" name="LPARD"> F  </i>
   <i type="logical" name="LVTOT"> F  </i>
   <i type="logical" name="LVHAR"> F  </i>
   <i type="logical" name="LELF"> F  </i>
   <i type="logical" name="LOPTICS"> F  </i>
   <v name="STM">      0.00000000      0.00000000      0.00000000      0.00000000      0.00000000      0.00000000      0.00000000</v>
  </separator>
  <separator name="performance" >
   <i type="int" name="NPAR">     5</i>
   <i type="int" name="NSIM">     4</i>
   <i type="int" name="NBLK">    -1</i>
   <i type="logical" name="LPLANE"> F  </i>
   <i type="logical" name="LSCALAPACK"> T  </i>
   <i type="logical" name="LSCAAWARE"> F  </i>
   <i type="logical" name="LSCALU"> F  </i>
   <i type="logical" name="LASYNC"> F  </i>
   <i type="logical" name="LORBITALREAL"> F  </i>
  </separator>
  <separator name="miscellaneous" >
   <i type="int" name="IDIOT">     3</i>
   <i type="logical" name="LMUSIC"> F  </i>
   <v name="POMASS">     28.08500000</v>
   <v name="DARWINR">      0.00000000</v>
   <v name="DARWINV">      1.00000000</v>
   <i type="logical" name="LCORR"> T  </i>
  </separator>
  <i type="logical" name="GGA_COMPAT"> T  </i>
  <i type="logical" name="LBERRY"> F  </i>
  <i type="int" name="ICORELEVEL">     0</i>
  <i type="logical" name="LDAU"> F  </i>
  <i type="int" name="I_CONSTRAINED_M">     0</i>
  <separator name="electronic exchange-correlation" >
   <i type="string" name="GGA">--</i>
   <i type="int" name="VOSKOWN">     0</i>
   <i type="logical" name="LHFCALC"> F  </i>
   <i type="string" name="PRECFOCK"></i>
   <i type="logical" name="LSYMGRAD"> F  </i>
   <i type="logical" name="LHFONE"> F  </i>
   <i type="logical" name="LRHFCALC"> F  </i>
   <i type="logical" name="LTHOMAS"> F  </i>
   <i type="logical" name="LMODELHF"> F  </i>
   <i name="ENCUT4O">     -1.00000000</i>
   <i type="int" name="EXXOEP">     0</i>
   <i type="int" name="FOURORBIT">     0</i>
   <i name="AEXX">      0.00000000</i>
   <i name="HFALPHA">      0.00000000</i>
   <i name="MCALPHA">      0.00000000</i>
   <i name="ALDAX">      1.00000000</i>
   <i name="AGGAX">      1.00000000</i>
   <i name="ALDAC">      1.00000000</i>
   <i name="AGGAC">      1.00000000</i>
   <i type="int" name="NKREDX">     1</i>
   <i type="int" name="NKREDY">     1</i>
   <i type="int" name="NKREDZ">     1</i>
   <i type="logical" name="SHIFTRED"> F  </i>
   <i type="logical" name="ODDONLY"> F  </i>
   <i type="logical" name="EVENONLY"> F  </i>
   <i type="int" name="LMAXFOCK">     0</i>
   <i type="int" name="NMAXFOCKAE">     0</i>
   <i type="logical" name="LFOCKAEDFT"> F  </i>
   <i name="HFSCREEN">      0.00000000</i>
   <i name="HFSCREENC">      0.00000000</i>
   <i type="int" name="NBANDSGWLOW">     0</i>
  </separator>
  <separator name="vdW DFT" >
   <i type="logical" name="LUSE_VDW"> F  </i>
   <i name="Zab_VDW">     -0.84910000</i>
   <i name="PARAM1">      0.12340000</i>
   <i name="PARAM2">      1.00000000</i>
   <i name="PARAM3">      0.00000000</i>
  </separator>
  <separator name="model GW" >
   <i type="int" name="MODEL_GW">     0</i>
   <i name="MODEL_EPS0">     12.01436085</i>
   <i name="MODEL_ALPHA">      1.00000000</i>
  </separator>
  <separator name="linear response parameters" >
   <i type="logical" name="LEPSILON"> F  </i>
   <i type="logical" name="LRPA"> F  </i>
   <i type="logical" name="LNABLA"> F  </i>
   <i type="logical" name="LVEL"> F  </i>
   <i type="int" name="KINTER">     0</i>
   <i name="CSHIFT">      0.10000000</i>
   <i name="OMEGAMAX">     -1.00000000</i>
   <i name="DEG_THRESHOLD">      0.00200000</i>
  </separator>
  <separator name="orbital magnetization" >
   <i type="logical" name="NUCIND"> F  </i>
   <v name="MAGPOS">      0.00000000      0.00000000      0.00000000</v>
   <i type="logical" name="LNICSALL"> T  </i>
   <i type="logical" name="ORBITALMAG"> F  </i>
   <i type="logical" name="LMAGBLOCH"> F  </i>
   <i type="logical" name="LCHIMAG"> F  </i>
   <i type="logical" name="LGAUGE"> T  </i>
   <i type="int" name="MAGATOM">     0</i>
   <v name="MAGDIPOL">      0.00000000      0.00000000      0.00000000</v>
   <v name="AVECCONST">      0.00000000      0.00000000      0.00000000</v>
  </separator>
  <separator name="response functions" >
   <i type="logical" name="LADDER"> F  </i>
   <i type="logical" name="LFXC"> F  </i>
   <i type="logical" name="LHARTREE"> T  </i>
   <i type="int" name="IBSE">     0</i>
   <v type="int" name="KPOINT">    -1     0     0     0</v>
   <i type="logical" name="LTCTE"> F  </i>
   <i type="logical" name="LTETE"> F  </i>
   <i type="logical" name="LTRIPLET"> F  </i>
   <i type="logical" name="LFXCEPS"> F  </i>
   <i type="logical" name="LFXHEG"> F  </i>
   <i type="int" name="NATURALO">     0</i>
   <i type="logical" name="L2ORDER"> F  </i>
   <i type="logical" name="LUSEW"> F  </i>
   <i name="ENCUTGW">     -2.00000000</i>
   <i name="ENCUTGWSOFT">     -2.00000000</i>
   <i name="ENCUTLF">     -1.00000000</i>
   <i type="int" name="LMAXMP2">    -1</i>
   <i name="SCISSOR">      0.00000000</i>
   <i type="int" name="NOMEGA">     0</i>
   <i type="int" name="NOMEGAR">     0</i>
   <i type="int" name="NBANDSGW">    -1</i>
   <i type="int" name="NBANDSO">    -1</i>
   <i type="int" name="NBANDSV">    -1</i>
   <i type="int" name="NELM">    60</i>
   <i type="int" name="NELMHF">     1</i>
   <i type="int" name="DIM">     3</i>
   <i type="int" name="ANTIRES">     0</i>
   <i name="OMEGAMAX">    -30.00000000</i>
   <i name="OMEGAMIN">    -30.00000000</i>
   <i name="OMEGATL">   -200.00000000</i>
   <i type="int" name="OMEGAGRID">     0</i>
   <i name="CSHIFT">     -0.10000000</i>
   <i type="logical" name="SELFENERGY"> F  </i>
   <i type="logical" name="LSPECTRAL"> F  </i>
   <i type="logical" name="LSPECTRALGW"> F  </i>
   <i type="logical" name="LSINGLES"> F  </i>
   <i type="logical" name="LFERMIGW"> F  </i>
   <i type="logical" name="ODDONLYGW"> F  </i>
   <i type="logical" name="EVENONLYGW"> F  </i>
   <i type="int" name="NKREDLFX">     1</i>
   <i type="int" name="NKREDLFY">     1</i>
   <i type="int" name="NKREDLFZ">     1</i>
   <i type="int" name="MAXMEM">  1800</i>
   <i type="int" name="TELESCOPE">     0</i>
   <i type="int" name="TAUPAR">     1</i>
   <i type="int" name="OMEGAPAR">    -1</i>
   <i name="LAMBDA">      1.00000000</i>
  </separator>
  <separator name="External order field" >
   <i name="OFIELD_KAPPA">      0.00000000</i>
   <v name="OFIELD_K">      0.00000000      0.00000000      0.00000000</v>
   <i name="OFIELD_Q6_NEAR">      0.00000000</i>
   <i name="OFIELD_Q6_FAR">      0.00000000</i>
   <i name="OFIELD_A">      0.00000000</i>
  </separator>
 </parameters>
 <atominfo>
  <atoms>       8 </atoms>
  <types>       1 </types>
  <array name="atoms" >
   <dimension dim="1">ion</dimension>
   <field type="string">element</field>
   <field type="int">atomtype</field>
   <set>
    <rc><c>Si</c><c>   1</c></rc>
    <rc><c>Si</c><c>   1</c></rc>
    <rc><c>Si</c><c>   1</c></rc>
    <rc><c>Si</c><c>   1</c></rc>
    <rc><c>Si</c><c>   1</c></rc>
    <rc><c>Si</c><c>   1</c></rc>
    <rc><c>Si</c><c>   1</c></rc>
    <rc><c>Si</c><c>   1</c></rc>
   </set>
  </array>
  <array name="atomtypes" >
   <dimension dim="1">type</dimension>
   <field type="int">atomspertype</field>
   <field type="string">element</field>
   <field>mass</field>
   <field>valence</field>
   <field type="string">pseudopotential</field>
   <set>
    <rc><c>   8</c><c>Si</c><c>     28.08500000</c><c>      4.00000000</c><c>  PAW_PBE Si 05Jan2001                  </c></rc>
   </set>
  </array>
 </atominfo>
 <structure name="initialpos" >
  <crystal>
   <varray name="basis" >
    <v>       5.43100000       0.00000000       0.00000000 </v>
    <v>       0.00000000       5.43100000       0.00000000 </v>
    <v>       0.00000000       0.00000000       5.43100000 </v>
   </varray>
   <i name="volume">    160.19147799 </i>
   <varray name="rec_basis" >
    <v>       0.18412815       0.00000000       0.00000000 </v>
    <v>       0.00000000       0.18412815       0.00000000 </v>
    <v>       0.00000000       0.00000000       0.18412815 </v>
   </varray>
  </crystal>
  <varray name="positions" >
   <v>       0.00000000       0.00000000       0.00000000 </v>
   <v>       0.00000000       0.50000000       0.50000000 </v>
   <v>       0.50000000       0.00000000       0.50000000 </v>
   <v>       0.50000000       0.50000000       0.00000000 </v>
   <v>       0.25000000       0.25000000       0.25000000 </v>
   <v>       0.75000000       0.75000000       0.25000000 </v>
   <v>       0.75000000       0.25000000       0.75000000 </v>
   <v>       0.25000000       0.75000000       0.75000000 </v>
  </varray>
 </structure>
 <calculation>
  <scstep>
   <time name="dav">    1.14    1.15</time>
   <time name="total">    1.16    1.17</time>
   <energy>
    <i name="alphaZ">     13.44915721 </i>
    <i name="ewald">   -914.08579262 </i>
    <i name="hartreedc">    -44.03749844 </i>
    <i name="XCdc">    -74.41615803 </i>
    <i name="pawpsdc">    704.99039692 </i>
    <i name="pawaedc">   -564.24414232 </i>
    <i name="eentropy">     -0.00832133 </i>
    <i name="bandstr">    136.35718068 </i>
    <i name="atom">    824.53298936 </i>
    <i name="e_fr_energy">     82.53781142 </i>
    <i name="e_wo_entrp">     82.54613276 </i>
    <i name="e_0_energy">     82.54197209 </i>
   </energy>
  </scstep>
  <scstep>
   <time name="dav">    1.07    1.08</time>
   <time name="total">    1.07    1.08</time>
   <energy>
    <i name="e_fr_energy">    -38.40915088 </i>
    <i name="e_wo_entrp">    -38.40887462 </i>
    <i name="e_0_energy">    -38.40901275 </i>
   </energy>
  </scstep>
  <scstep>
   <time name="dav">    1.12    1.13</time>
   <time name="total">    1.19    1.20</time>
   <energy>
    <i name="e_fr_energy">    -44.03238216 </i>
    <i name="e_wo_entrp">    -44.03238216 </i>
    <i name="e_0_energy">    -44.03238216 </i>
   </energy>
  </scstep>
  <scstep>
   <time name="dav">    1.26    1.28</time>
   <time name="total">    1.34    1.37</time>
   <energy>
    <i name="e_fr_energy">    -43.60747046 </i>
    <i name="e_wo_entrp">    -43.60747046 </i>
    <i name="e_0_energy">    -43.60747046 </i>
   </energy>
  </scstep>
  <scstep>
   <time name="dav">    1.04    1.04</time>
   <time name="total">    1.12    1.13</time>
   <energy>
    <i name="e_fr_energy">    -43.37233476 </i>
    <i name="e_wo_entrp">    -43.37233456 </i>
    <i name="e_0_energy">    -43.37233466 </i>
   </energy>
  </scstep>
  <scstep>
   <time name="dav">    1.09    1.15</time>
   <time name="total">    1.18    1.25</time>
   <energy>
    <i name="e_fr_energy">    -43.37813256 </i>
    <i name="e_wo_entrp">    -43.37813235 </i>
    <i name="e_0_energy">    -43.37813246 </i>
   </energy>
  </scstep>
  <scstep>
   <time name="dav">    1.30    1.33</time>
   <time name="total">    1.38    1.42</time>
   <energy>
    <i name="e_fr_energy">    -43.38055755 </i>
    <i name="e_wo_entrp">    -43.38055743 </i>
    <i name="e_0_energy">    -43.38055749 </i>
   </energy>
  </scstep>
  <scstep>
   <time name="dav">    1.13    1.15</time>
   <time name="total">    1.15    1.17</time>
   <energy>
    <i name="alphaZ">     13.44915721 </i>
    <i name="ewald">   -914.08579262 </i>
    <i name="hartreedc">    -59.63816258 </i>
    <i name="XCdc">    -71.87083073 </i>
    <i name="pawpsdc">   3500.95965094 </i>
    <i name="pawaedc">  -3361.10494953 </i>
    <i name="eentropy">     -0.00000013 </i>
    <i name="bandstr">     24.37737768 </i>
    <i name="atom">    824.53298936 </i>
    <i name="e_fr_energy">    -43.38056040 </i>
    <i name="e_wo_entrp">    -43.38056027 </i>
    <i name="e_0_energy">    -43.38056034 </i>
   </energy>
  </scstep>
  <structure>
   <crystal>
    <varray name="basis" >
     <v>       5.43100000       0.00000000       0.00000000 </v>
     <v>       0.00000000       5.43100000       0.00000000 </v>
     <v>       0.00000000       0.00000000       5.43100000 </v>
    </varray>
    <i name="volume">    160.19147799 </i>
    <varray name="rec_basis" >
     <v>       0.18412815       0.00000000       0.00000000 </v>
     <v>       0.00000000       0.18412815       0.00000000 </v>
     <v>       0.00000000       0.00000000       0.18412815 </v>
    </varray>
   </crystal>
   <varray name="positions" >
    <v>       0.00000000       0.00000000       0.00000000 </v>
    <v>       0.00000000       0.50000000       0.50000000 </v>
    <v>       0.50000000       0.00000000       0.50000000 </v>
    <v>       0.50000000       0.50000000       0.00000000 </v>
    <v>       0.25000000       0.25000000       0.25000000 </v>
    <v>       0.75000000       0.75000000       0.25000000 </v>
    <v>       0.75000000       0.25000000       0.75000000 </v>
    <v>       0.25000000       0.75000000       0.75000000 </v>
   </varray>
  </structure>
  <varray name="forces" >
   <v>      -0.00000000      -0.00000000      -0.00000000 </v>
   <v>      -0.00000000       0.00000000      -0.00000000 </v>
   <v>      -0.00000000       0.00000000      -0.00000000 </v>
   <v>      -0.00000000       0.00000000      -0.00000000 </v>
   <v>       0.00000000      -0.00000000       0.00000000 </v>
   <v>       0.00000000       0.00000000       0.00000000 </v>
   <v>       0.00000000      -0.00000000       0.00000000 </v>
   <v>       0.00000000       0.00000000       0.00000000 </v>
  </varray>
  <varray name="stress" >
   <v>      19.65785743      -0.00000000       0.00000000 </v>
   <v>       0.00000000      19.65785743       0.00000000 </v>
   <v>      -0.00000000       0.00000000      19.65785743 </v>
  </varray>
  <energy>
   <i name="e_fr_energy">    -43.38056040 </i>
   <i name="e_wo_entrp">    -43.38056034 </i>
   <i name="e_0_energy">     -0.00000013 </i>
  </energy>
  <time name="totalsc">   11.03   11.25</time>
 </calculation>
 <calculation>
  <scstep>
   <time name="dav">    0.98    0.99</time>
   <time name="total">    1.00    1.01</time>
   <energy>
    <i name="alphaZ">     12.53634275 </i>
    <i name="ewald">   -892.91932289 </i>
    <i name="hartreedc">    -58.30928931 </i>
    <i name="XCdc">    -73.24612564 </i>
    <i name="pawpsdc">   3466.11051102 </i>
    <i name="pawaedc">  -3326.25853973 </i>
    <i name="eentropy">     -0.00000000 </i>
    <i name="bandstr">      4.15637426 </i>
    <i name="atom">    824.53298936 </i>
    <i name="e_fr_energy">    -43.39706018 </i>
    <i name="e_wo_entrp">    -43.39706018 </i>
    <i name="e_0_energy">    -43.39706018 </i>
   </energy>
  </scstep>
  <scstep>
   <time name="dav">    1.07    1.08</time>
   <time name="total">    1.07    1.08</time>
   <energy>
    <i name="e_fr_energy">    -43.40488112 </i>
    <i name="e_wo_entrp">    -43.40488112 </i>
    <i name="e_0_energy">    -43.40488112 </i>
   </energy>
  </scstep>
  <scstep>
   <time name="dav">    1.06    1.06</time>
   <time name="total">    1.13    1.14</time>
   <energy>
    <i name="e_fr_energy">    -43.40496757 </i>
    <i name="e_wo_entrp">    -43.40496757 </i>
    <i name="e_0_energy">    -43.40496757 </i>
   </energy>
  </scstep>
  <scstep>
   <time name="dav">    0.94    0.94</time>
   <time name="total">    1.02    1.03</time>
   <energy>
    <i name="e_fr_energy">    -43.33075795 </i>
    <i name="e_wo_entrp">    -43.33075795 </i>
    <i name="e_0_energy">    -43.33075795 </i>
   </energy>
  </scstep>
  <scstep>
   <time name="dav">    1.00    1.06</time>
   <time name="total">    1.08    1.15</time>
   <energy>
    <i name="e_fr_energy">    -43.29384933 </i>
    <i name="e_wo_entrp">    -43.29384933 </i>
    <i name="e_0_energy">    -43.29384933 </i>
   </energy>
  </scstep>
  <scstep>
   <time name="dav">    1.17    1.19</time>
   <time name="total">    1.26    1.28</time>
   <energy>
    <i name="e_fr_energy">    -43.29365703 </i>
    <i name="e_wo_entrp">    -43.29365703 </i>
    <i name="e_0_energy">    -43.29365703 </i>
   </energy>
  </scstep>
  <scstep>
   <time name="dav">    1.03    1.03</time>
   <time name="total">    1.04    1.05</time>
   <energy>
    <i name="alphaZ">     12.53634275 </i>
    <i name="ewald">   -892.91932289 </i>
    <i name="hartreedc">    -63.08095015 </i>
    <i name="XCdc">    -73.14202781 </i>
    <i name="pawpsdc">   2949.35988231 </i>
    <i name="pawaedc">  -2809.27005143 </i>
    <i name="eentropy">     -0.00000000 </i>
    <i name="bandstr">      8.68956229 </i>
    <i name="atom">    824.53298936 </i>
    <i name="e_fr_energy">    -43.29357558 </i>
    <i name="e_wo_entrp">    -43.29357557 </i>
    <i name="e_0_energy">    -43.29357557 </i>
   </energy>
  </scstep>
  <structure>
   <crystal>
    <varray name="basis" >
     <v>       5.55974074      -0.00000000       0.00000000 </v>
     <v>       0.00000000       5.55974074       0.00000000 </v>
     <v>      -0.00000000       0.00000000       5.55974074 </v>
    </varray>
    <i name="volume">    171.85557342 </i>
    <varray name="rec_basis" >
     <v>       0.17986450      -0.00000000       0.00000000 </v>
     <v>       0.00000000       0.17986450      -0.00000000 </v>
     <v>      -0.00000000      -0.00000000       0.17986450 </v>
    </varray>
   </crystal>
   <varray name="positions" >
    <v>      -0.00000000      -0.00000000      -0.00000000 </v>
    <v>      -0.00000000       0.50000000       0.50000000 </v>
    <v>       0.50000000       0.00000000       0.50000000 </v>
    <v>       0.50000000       0.50000000      -0.00000000 </v>
    <v>       0.25000000       0.25000000       0.25000000 </v>
    <v>       0.75000000       0.75000000       0.25000000 </v>
    <v>       0.75000000       0.25000000       0.75000000 </v>
    <v>       0.25000000       0.75000000       0.75000000 </v>
   </varray>
  </structure>
  <varray name="forces" >
   <v>       0.00000000       0.00000000      -0.00000000 </v>
   <v>       0.00000000       0.00000000       0.00000000 </v>
   <v>       0.00000000       0.00000000       0.00000000 </v>
   <v>       0.00000000      -0.00000000      -0.00000000 </v>
   <v>       0.00000000      -0.00000000       0.00000000 </v>
   <v>      -0.00000000       0.00000000       0.00000000 </v>
   <v>      -0.00000000       0.00000000      -0.00000000 </v>
   <v>      -0.00000000      -0.00000000      -0.00000000 </v>
  </varray>
  <varray name="stress" >
   <v>     -39.55596675       0.00000000      -0.00000000 </v>
   <v>      -0.00000000     -39.55596675       0.00000000 </v>
   <v>       0.00000000      -0.00000000     -39.55596675 </v>
  </varray>
  <energy>
   <i name="e_fr_energy">    -43.29357558 </i>
   <i name="e_wo_entrp">    -43.29357557 </i>
   <i name="e_0_energy">     -0.00000000 </i>
  </energy>
  <time name="totalsc">    8.39    8.55</time>
 </calculation>
 <calculation>
  <scstep>
   <time name="dav">    0.98    0.99</time>
   <time name="total">    1.00    1.01</time>
   <energy>
    <i name="alphaZ">     13.16676127 </i>
    <i name="ewald">   -907.64270742 </i>
    <i name="hartreedc">    -64.13482171 </i>
    <i name="XCdc">    -72.19361306 </i>
    <i name="pawpsdc">   2979.68717919 </i>
    <i name="pawaedc">  -2839.60370507 </i>
    <i name="eentropy">     -0.00000039 </i>
    <i name="bandstr">     22.73699486 </i>
    <i name="atom">    824.53298936 </i>
    <i name="e_fr_energy">    -43.45092296 </i>
    <i name="e_wo_entrp">    -43.45092257 </i>
    <i name="e_0_energy">    -43.45092276 </i>
   </energy>
  </scstep>
  <scstep>
   <time name="dav">    1.11    1.11</time>
   <time name="total">    1.11    1.12</time>
   <energy>
    <i name="e_fr_energy">    -43.45579389 </i>
    <i name="e_wo_entrp">    -43.45579350 </i>
    <i name="e_0_energy">    -43.45579369 </i>
   </energy>
  </scstep>
  <scstep>
   <time name="dav">    1.04    1.05</time>
   <time name="total">    1.11    1.12</time>
   <energy>
    <i name="e_fr_energy">    -43.45583021 </i>
    <i name="e_wo_entrp">    -43.45582982 </i>
    <i name="e_0_energy">    -43.45583001 </i>
   </energy>
  </scstep>
  <scstep>
   <time name="dav">    0.91    0.91</time>
   <time name="total">    0.99    1.00</time>
   <energy>
    <i name="e_fr_energy">    -43.41882769 </i>
    <i name="e_wo_entrp">    -43.41882755 </i>
    <i name="e_0_energy">    -43.41882762 </i>
   </energy>
  </scstep>
  <scstep>
   <time name="dav">    1.04    1.05</time>
   <time name="total">    1.12    1.15</time>
   <energy>
    <i name="e_fr_energy">    -43.40061565 </i>
    <i name="e_wo_entrp">    -43.40061560 </i>
    <i name="e_0_energy">    -43.40061562 </i>
   </energy>
  </scstep>
  <scstep>
   <time name="dav">    1.07    1.14</time>
   <time name="total">    1.16    1.23</time>
   <energy>
    <i name="e_fr_energy">    -43.40059726 </i>
    <i name="e_wo_entrp">    -43.40059722 </i>
    <i name="e_0_energy">    -43.40059724 </i>
   </energy>
  </scstep>
  <scstep>
   <time name="dav">    0.91    0.93</time>
   <time name="total">    0.93    0.95</time>
   <energy>
    <i name="alphaZ">     13.16676127 </i>
    <i name="ewald">   -907.64270742 </i>
    <i name="hartreedc">    -60.69997070 </i>
    <i name="XCdc">    -72.25331288 </i>
    <i name="pawpsdc">   3323.96362364 </i>
    <i name="pawaedc">  -3184.03897644 </i>
    <i name="eentropy">     -0.00000004 </i>
    <i name="bandstr">     19.57107052 </i>
    <i name="atom">    824.53298936 </i>
    <i name="e_fr_energy">    -43.40052268 </i>
    <i name="e_wo_entrp">    -43.40052264 </i>
    <i name="e_0_energy">    -43.40052266 </i>
   </energy>
  </scstep>
  <structure>
   <crystal>
    <varray name="basis" >
     <v>       5.46955305      -0.00000000       0.00000000 </v>
     <v>       0.00000000       5.46955305       0.00000000 </v>
     <v>      -0.00000000       0.00000000       5.46955305 </v>
    </varray>
    <i name="volume">    163.62720694 </i>
    <varray name="rec_basis" >
     <v>       0.18283030      -0.00000000       0.00000000 </v>
     <v>       0.00000000       0.18283030      -0.00000000 </v>
     <v>      -0.00000000      -0.00000000       0.18283030 </v>
    </varray>
   </crystal>
   <varray name="positions" >
    <v>      -0.00000000      -0.00000000      -0.00000000 </v>
    <v>      -0.00000000       0.50000000       0.50000000 </v>
    <v>       0.50000000       0.00000000       0.50000000 </v>
    <v>       0.50000000       0.50000000      -0.00000000 </v>
    <v>       0.25000000       0.25000000       0.25000000 </v>
    <v>       0.75000000       0.75000000       0.25000000 </v>
    <v>       0.75000000       0.25000000       0.75000000 </v>
    <v>       0.25000000       0.75000000       0.75000000 </v>
   </varray>
  </structure>
  <varray name="forces" >
   <v>       0.00000000      -0.00000000       0.00000000 </v>
   <v>      -0.00000000      -0.00000000       0.00000000 </v>
   <v>      -0.00000000      -0.00000000      -0.00000000 </v>
   <v>       0.00000000      -0.00000000       0.00000000 </v>
   <v>      -0.00000000       0.00000000      -0.00000000 </v>
   <v>      -0.00000000       0.00000000      -0.00000000 </v>
   <v>       0.00000000       0.00000000      -0.00000000 </v>
   <v>       0.00000000      -0.00000000       0.00000000 </v>
  </varray>
  <varray name="stress" >
   <v>      -0.28159694       0.00000000       0.00000000 </v>
   <v>       0.00000000      -0.28159694       0.00000000 </v>
   <v>      -0.00000000      -0.00000000      -0.28159694 </v>
  </varray>
  <energy>
   <i name="e_fr_energy">    -43.40052268 </i>
   <i name="e_wo_entrp">    -43.40052266 </i>
   <i name="e_0_energy">     -0.00000004 </i>
  </energy>
  <time name="totalsc">    8.33    8.65</time>
  <eigenvalues>
   <array>
    <dimension dim="1">band</dimension>
    <dimension dim="2">kpoint</dimension>
    <dimension dim="3">spin</dimension>
    <field>eigene</field>
    <field>occ</field>
    <set>
     <set comment="spin 1">
      <set comment="kpoint 1">
       <r>   -6.2003    1.0000 </r>
       <r>   -2.1336    1.0000 </r>
       <r>   -2.1336    1.0000 </r>
       <r>   -2.1336    1.0000 </r>
       <r>   -2.1336    1.0000 </r>
       <r>   -2.1336    1.0000 </r>
       <r>   -2.1336    1.0000 </r>
       <r>    2.8183    1.0000 </r>
       <r>    2.8183    1.0000 </r>
       <r>    2.8183    1.0000 </r>
       <r>    2.8183    1.0000 </r>
       <r>    2.8183    1.0000 </r>
       <r>    2.8183    1.0000 </r>
       <r>    5.6111    1.0000 </r>
       <r>    5.6111    1.0000 </r>
       <r>    5.6111    1.0000 </r>
       <r>    6.3643    0.0000 </r>
       <r>    6.3643    0.0000 </r>
       <r>    6.3643    0.0000 </r>
       <r>    6.3643    0.0000 </r>
       <r>    6.3643    0.0000 </r>
       <r>    6.3643    0.0000 </r>
       <r>    8.1679    0.0000 </r>
       <r>    8.1679    0.0000 </r>
       <r>    8.1679    0.0000 </r>
      </set>
      <set comment="kpoint 2">
       <r>   -6.1648    1.0000 </r>
       <r>   -2.8015    1.0000 </r>
       <r>   -2.1223    1.0000 </r>
       <r>   -2.1223    1.0000 </r>
       <r>   -2.1223    1.0000 </r>
       <r>   -2.1223    1.0000 </r>
       <r>   -1.4233    1.0000 </r>
       <r>    2.7179    1.0000 </r>
       <r>    2.7179    1.0000 </r>
       <r>    2.7179    1.0000 </r>
       <r>    2.7179    1.0000 </r>
       <r>    2.8504    1.0000 </r>
       <r>    2.8504    1.0000 </r>
       <r>    5.3689    1.0000 </r>
       <r>    5.4682    1.0000 </r>
       <r>    5.4682    1.0000 </r>
       <r>    6.2490    0.0000 </r>
       <r>    6.5549    0.0000 </r>
       <r>    6.5549    0.0000 </r>
       <r>    6.5549    0.0000 </r>
       <r>    6.5549    0.0000 </r>
       <r>    6.5757    0.0000 </r>
       <r>    8.0819    0.0000 </r>
       <r>    8.3546    0.0000 </r>
       <r>    8.3546    0.0000 </r>
      </set>
      <set comment="kpoint 3">
       <r>   -6.0584    1.0000 </r>
       <r>   -3.4208    1.0000 </r>
       <r>   -2.0913    1.0000 </r>
       <r>   -2.0913    1.0000 </r>
       <r>   -2.0913    1.0000 </r>
       <r>   -2.0913    1.0000 </r>
       <r>   -0.6778    1.0000 </r>
       <r>    2.4783    1.0000 </r>
       <r>    2.4783    1.0000 </r>
       <r>    2.4783    1.0000 </r>
       <r>    2.4783    1.0000 </r>
       <r>    2.9464    1.0000 </r>
       <r>    2.9464    1.0000 </r>
       <r>    4.7917    1.0000 </r>
       <r>    5.1290    1.0000 </r>
       <r>    5.1290    1.0000 </r>
       <r>    6.2248    0.0000 </r>
       <r>    6.8875    0.0000 </r>
       <r>    7.0670    0.0000 </r>
       <r>    7.0670    0.0000 </r>
       <r>    7.0670    0.0000 </r>
       <r>    7.0670    0.0000 </r>
       <r>    7.8537    0.0000 </r>
       <r>    8.8244    0.0000 </r>
       <r>    8.8244    0.0000 </r>
      </set>
      <set comment="kpoint 4">
       <r>   -5.8816    1.0000 </r>
       <r>   -3.9863    1.0000 </r>
       <r>   -2.0489    1.0000 </r>
       <r>   -2.0489    1.0000 </r>
       <r>   -2.0489    1.0000 </r>
       <r>   -2.0489    1.0000 </r>
       <r>    0.0950    1.0000 </r>
       <r>    2.2086    1.0000 </r>
       <r>    2.2086    1.0000 </r>
       <r>    2.2086    1.0000 </r>
       <r>    2.2086    1.0000 </r>
       <r>    3.1053    1.0000 </r>
       <r>    3.1053    1.0000 </r>
       <r>    4.0710    1.0000 </r>
       <r>    4.7213    1.0000 </r>
       <r>    4.7213    1.0000 </r>
       <r>    6.2859    0.0000 </r>
       <r>    7.3016    0.0000 </r>
       <r>    7.5462    0.0000 </r>
       <r>    7.7959    0.0000 </r>
       <r>    7.7959    0.0000 </r>
       <r>    7.7959    0.0000 </r>
       <r>    7.7959    0.0000 </r>
       <r>    9.4477    0.0000 </r>
       <r>    9.4477    0.0000 </r>
      </set>
      <set comment="kpoint 5">
       <r>   -5.6352    1.0000 </r>
       <r>   -4.4937    1.0000 </r>
       <r>   -2.0079    1.0000 </r>
       <r>   -2.0079    1.0000 </r>
       <r>   -2.0079    1.0000 </r>
       <r>   -2.0079    1.0000 </r>
       <r>    0.8869    1.0000 </r>
       <r>    1.9892    1.0000 </r>
       <r>    1.9892    1.0000 </r>
       <r>    1.9892    1.0000 </r>
       <r>    1.9892    1.0000 </r>
       <r>    3.2941    1.0000 </r>
       <r>    3.3254    1.0000 </r>
       <r>    3.3254    1.0000 </r>
       <r>    4.3133    1.0000 </r>
       <r>    4.3133    1.0000 </r>
       <r>    6.4256    0.0000 </r>
       <r>    7.2167    0.0000 </r>
       <r>    7.8164    0.0000 </r>
       <r>    8.6646    0.0000 </r>
       <r>    8.6646    0.0000 </r>
       <r>    8.6646    0.0000 </r>
       <r>    8.6646    0.0000 </r>
       <r>    9.6835    0.0000 </r>
       <r>   10.1537    0.0000 </r>
      </set>
      <set comment="kpoint 6">
       <r>   -5.3206    1.0000 </r>
       <r>   -4.9394    1.0000 </r>
       <r>   -1.9826    1.0000 </r>
       <r>   -1.9826    1.0000 </r>
       <r>   -1.9826    1.0000 </r>
       <r>   -1.9826    1.0000 </r>
       <r>    1.6897    1.0000 </r>
       <r>    1.8680    1.0000 </r>
       <r>    1.8680    1.0000 </r>
       <r>    1.8680    1.0000 </r>
       <r>    1.8680    1.0000 </r>
       <r>    2.4953    1.0000 </r>
       <r>    3.6038    1.0000 </r>
       <r>    3.6038    1.0000 </r>
       <r>    3.9358    1.0000 </r>
       <r>    3.9358    1.0000 </r>
       <r>    6.6356    0.0000 </r>
       <r>    6.9048    0.0000 </r>
       <r>    8.4207    0.0000 </r>
       <r>    9.0804    0.0000 </r>
       <r>    9.5927    0.0000 </r>
       <r>    9.5927    0.0000 </r>
       <r>    9.5927    0.0000 </r>
       <r>    9.5927    0.0000 </r>
       <r>   10.8487    0.0000 </r>
      </set>
      <set comment="kpoint 7">
       <r>   -6.1293    1.0000 </r>
       <r>   -2.7832    1.0000 </r>
       <r>   -2.7832    1.0000 </r>
       <r>   -2.1683    1.0000 </r>
       <r>   -2.0564    1.0000 </r>
       <r>   -1.4220    1.0000 </r>
       <r>   -1.4220    1.0000 </r>
       <r>    2.4204    1.0000 </r>
       <r>    2.7349    1.0000 </r>
       <r>    2.7349    1.0000 </r>
       <r>    2.7694    1.0000 </r>
       <r>    2.7694    1.0000 </r>
       <r>    2.8751    1.0000 </r>
       <r>    4.9762    1.0000 </r>
       <r>    5.3250    1.0000 </r>
       <r>    5.5785    1.0000 </r>
       <r>    6.4296    0.0000 </r>
       <r>    6.4481    0.0000 </r>
       <r>    6.4481    0.0000 </r>
       <r>    6.7560    0.0000 </r>
       <r>    6.7560    0.0000 </r>
       <r>    7.0034    0.0000 </r>
       <r>    8.2411    0.0000 </r>
       <r>    8.3006    0.0000 </r>
       <r>    8.3517    0.0000 </r>
      </set>
      <set comment="kpoint 8">
       <r>   -6.0232    1.0000 </r>
       <r>   -3.3975    1.0000 </r>
       <r>   -2.7302    1.0000 </r>
       <r>   -2.2025    1.0000 </r>
       <r>   -1.9681    1.0000 </r>
       <r>   -1.4217    1.0000 </r>
       <r>   -0.6908    1.0000 </r>
       <r>    2.0921    1.0000 </r>
       <r>    2.4584    1.0000 </r>
       <r>    2.5784    1.0000 </r>
       <r>    2.8193    1.0000 </r>
       <r>    2.8315    1.0000 </r>
       <r>    2.8899    1.0000 </r>
       <r>    4.3994    1.0000 </r>
       <r>    4.9847    1.0000 </r>
       <r>    5.3774    1.0000 </r>
       <r>    6.4304    0.0000 </r>
       <r>    6.6839    0.0000 </r>
       <r>    6.9765    0.0000 </r>
       <r>    7.0558    0.0000 </r>
       <r>    7.2471    0.0000 </r>
       <r>    7.6724    0.0000 </r>
       <r>    8.0449    0.0000 </r>
       <r>    8.6045    0.0000 </r>
       <r>    8.7506    0.0000 </r>
      </set>
      <set comment="kpoint 9">
       <r>   -5.8469    1.0000 </r>
       <r>   -3.9594    1.0000 </r>
       <r>   -2.6490    1.0000 </r>
       <r>   -2.2370    1.0000 </r>
       <r>   -1.8605    1.0000 </r>
       <r>   -1.4324    1.0000 </r>
       <r>    0.0615    1.0000 </r>
       <r>    1.8146    1.0000 </r>
       <r>    2.1390    1.0000 </r>
       <r>    2.3750    1.0000 </r>
       <r>    2.6493    1.0000 </r>
       <r>    2.9696    1.0000 </r>
       <r>    3.0798    1.0000 </r>
       <r>    3.7516    1.0000 </r>
       <r>    4.5754    1.0000 </r>
       <r>    4.9658    1.0000 </r>
       <r>    6.4958    0.0000 </r>
       <r>    7.2553    0.0000 </r>
       <r>    7.4569    0.0000 </r>
       <r>    7.7191    0.0000 </r>
       <r>    7.7453    0.0000 </r>
       <r>    7.9566    0.0000 </r>
       <r>    8.4882    0.0000 </r>
       <r>    9.0990    0.0000 </r>
       <r>    9.3825    0.0000 </r>
      </set>
      <set comment="kpoint 10">
       <r>   -5.6013    1.0000 </r>
       <r>   -4.4641    1.0000 </r>
       <r>   -2.5499    1.0000 </r>
       <r>   -2.2850    1.0000 </r>
       <r>   -1.7425    1.0000 </r>
       <r>   -1.4663    1.0000 </r>
       <r>    0.8240    1.0000 </r>
       <r>    1.6372    1.0000 </r>
       <r>    1.8579    1.0000 </r>
       <r>    2.2341    1.0000 </r>
       <r>    2.4359    1.0000 </r>
       <r>    3.0593    1.0000 </r>
       <r>    3.1838    1.0000 </r>
       <r>    3.3388    1.0000 </r>
       <r>    4.1663    1.0000 </r>
       <r>    4.5000    1.0000 </r>
       <r>    6.6377    0.0000 </r>
       <r>    7.4221    0.0000 </r>
       <r>    7.9576    0.0000 </r>
       <r>    8.0376    0.0000 </r>
       <r>    8.5984    0.0000 </r>
       <r>    8.8077    0.0000 </r>
       <r>    9.4005    0.0000 </r>
       <r>    9.5554    0.0000 </r>
       <r>   10.0997    0.0000 </r>
      </set>
      <set comment="kpoint 11">
       <r>   -5.2877    1.0000 </r>
       <r>   -4.9078    1.0000 </r>
       <r>   -2.4470    1.0000 </r>
       <r>   -2.3553    1.0000 </r>
       <r>   -1.6278    1.0000 </r>
       <r>   -1.5320    1.0000 </r>
       <r>    1.5853    1.0000 </r>
       <r>    1.5853    1.0000 </r>
       <r>    1.6635    1.0000 </r>
       <r>    2.1961    1.0000 </r>
       <r>    2.2697    1.0000 </r>
       <r>    2.3339    1.0000 </r>
       <r>    3.4586    1.0000 </r>
       <r>    3.6657    1.0000 </r>
       <r>    3.7889    1.0000 </r>
       <r>    4.0565    1.0000 </r>
       <r>    6.8477    0.0000 </r>
       <r>    7.1146    0.0000 </r>
       <r>    8.5466    0.0000 </r>
       <r>    8.9455    0.0000 </r>
       <r>    9.1795    0.0000 </r>
       <r>    9.5583    0.0000 </r>
       <r>    9.6102    0.0000 </r>
       <r>   10.2203    0.0000 </r>
       <r>   10.2381    0.0000 </r>
      </set>
      <set comment="kpoint 12">
       <r>   -5.9179    1.0000 </r>
       <r>   -3.3289    1.0000 </r>
       <r>   -3.3289    1.0000 </r>
       <r>   -2.3135    1.0000 </r>
       <r>   -1.8252    1.0000 </r>
       <r>   -0.7335    1.0000 </r>
       <r>   -0.7335    1.0000 </r>
       <r>    1.7554    1.0000 </r>
       <r>    2.5155    1.0000 </r>
       <r>    2.5155    1.0000 </r>
       <r>    2.7619    1.0000 </r>
       <r>    2.7619    1.0000 </r>
       <r>    3.0427    1.0000 </r>
       <r>    3.8230    1.0000 </r>
       <r>    4.6412    1.0000 </r>
       <r>    5.4691    1.0000 </r>
       <r>    6.6229    0.0000 </r>
       <r>    6.9701    0.0000 </r>
       <r>    6.9701    0.0000 </r>
       <r>    7.5214    0.0000 </r>
       <r>    7.5214    0.0000 </r>
       <r>    8.4283    0.0000 </r>
       <r>    8.4603    0.0000 </r>
       <r>    8.4961    0.0000 </r>
       <r>    8.6212    0.0000 </r>
      </set>
      <set comment="kpoint 13">
       <r>   -5.7431    1.0000 </r>
       <r>   -3.8795    1.0000 </r>
       <r>   -3.2195    1.0000 </r>
       <r>   -2.4368    1.0000 </r>
       <r>   -1.6604    1.0000 </r>
       <r>   -0.8139    1.0000 </r>
       <r>   -0.0398    1.0000 </r>
       <r>    1.5186    1.0000 </r>
       <r>    2.1599    1.0000 </r>
       <r>    2.6429    1.0000 </r>
       <r>    2.6462    1.0000 </r>
       <r>    3.0311    1.0000 </r>
       <r>    3.0534    1.0000 </r>
       <r>    3.2159    1.0000 </r>
       <r>    4.2282    1.0000 </r>
       <r>    5.2365    1.0000 </r>
       <r>    6.9363    0.0000 </r>
       <r>    7.0422    0.0000 </r>
       <r>    7.7209    0.0000 </r>
       <r>    7.8932    0.0000 </r>
       <r>    8.2057    0.0000 </r>
       <r>    8.2485    0.0000 </r>
       <r>    8.7240    0.0000 </r>
       <r>    9.2079    0.0000 </r>
       <r>    9.2917    0.0000 </r>
      </set>
      <set comment="kpoint 14">
       <r>   -5.4998    1.0000 </r>
       <r>   -4.3760    1.0000 </r>
       <r>   -3.0772    1.0000 </r>
       <r>   -2.5804    1.0000 </r>
       <r>   -1.4771    1.0000 </r>
       <r>   -0.9374    1.0000 </r>
       <r>    0.6463    1.0000 </r>
       <r>    1.4086    1.0000 </r>
       <r>    1.8329    1.0000 </r>
       <r>    2.5935    1.0000 </r>
       <r>    2.5961    1.0000 </r>
       <r>    2.8470    1.0000 </r>
       <r>    2.9246    1.0000 </r>
       <r>    3.3849    1.0000 </r>
       <r>    3.8168    1.0000 </r>
       <r>    4.8013    1.0000 </r>
       <r>    7.1858    0.0000 </r>
       <r>    7.5596    0.0000 </r>
       <r>    7.9455    0.0000 </r>
       <r>    8.3613    0.0000 </r>
       <r>    8.6045    0.0000 </r>
       <r>    9.0307    0.0000 </r>
       <r>    9.1637    0.0000 </r>
       <r>    9.9505    0.0000 </r>
       <r>   10.2176    0.0000 </r>
      </set>
      <set comment="kpoint 15">
       <r>   -5.1893    1.0000 </r>
       <r>   -4.8138    1.0000 </r>
       <r>   -2.9134    1.0000 </r>
       <r>   -2.7428    1.0000 </r>
       <r>   -1.2850    1.0000 </r>
       <r>   -1.0992    1.0000 </r>
       <r>    1.3154    1.0000 </r>
       <r>    1.4322    1.0000 </r>
       <r>    1.5804    1.0000 </r>
       <r>    1.9643    1.0000 </r>
       <r>    2.6365    1.0000 </r>
       <r>    2.7606    1.0000 </r>
       <r>    3.1135    1.0000 </r>
       <r>    3.4398    1.0000 </r>
       <r>    3.8152    1.0000 </r>
       <r>    4.3013    1.0000 </r>
       <r>    7.3927    0.0000 </r>
       <r>    7.6514    0.0000 </r>
       <r>    8.3846    0.0000 </r>
       <r>    8.9106    0.0000 </r>
       <r>    9.2939    0.0000 </r>
       <r>    9.4091    0.0000 </r>
       <r>    9.5738    0.0000 </r>
       <r>   10.0505    0.0000 </r>
       <r>   10.1200    0.0000 </r>
      </set>
      <set comment="kpoint 16">
       <r>   -5.5709    1.0000 </r>
       <r>   -3.7499    1.0000 </r>
       <r>   -3.7499    1.0000 </r>
       <r>   -2.6556    1.0000 </r>
       <r>   -1.4411    1.0000 </r>
       <r>   -0.2064    1.0000 </r>
       <r>   -0.2064    1.0000 </r>
       <r>    1.3485    1.0000 </r>
       <r>    2.2649    1.0000 </r>
       <r>    2.2649    1.0000 </r>
       <r>    2.6499    1.0000 </r>
       <r>    3.0120    1.0000 </r>
       <r>    3.0120    1.0000 </r>
       <r>    3.3132    1.0000 </r>
       <r>    3.8118    1.0000 </r>
       <r>    5.2580    1.0000 </r>
       <r>    6.9350    0.0000 </r>
       <r>    7.7956    0.0000 </r>
       <r>    7.7956    0.0000 </r>
       <r>    8.5472    0.0000 </r>
       <r>    8.5472    0.0000 </r>
       <r>    8.5951    0.0000 </r>
       <r>    8.8248    0.0000 </r>
       <r>    9.0627    0.0000 </r>
       <r>   10.1790    0.0000 </r>
      </set>
      <set comment="kpoint 17">
       <r>   -5.3315    1.0000 </r>
       <r>   -4.2317    1.0000 </r>
       <r>   -3.5761    1.0000 </r>
       <r>   -2.8915    1.0000 </r>
       <r>   -1.2007    1.0000 </r>
       <r>   -0.4264    1.0000 </r>
       <r>    0.3833    1.0000 </r>
       <r>    1.3128    1.0000 </r>
       <r>    1.9050    1.0000 </r>
       <r>    2.0828    1.0000 </r>
       <r>    2.4481    1.0000 </r>
       <r>    3.0552    1.0000 </r>
       <r>    3.3717    1.0000 </r>
       <r>    3.3990    1.0000 </r>
       <r>    3.4707    1.0000 </r>
       <r>    4.9856    1.0000 </r>
       <r>    7.2988    0.0000 </r>
       <r>    7.9363    0.0000 </r>
       <r>    8.6460    0.0000 </r>
       <r>    8.6774    0.0000 </r>
       <r>    8.7610    0.0000 </r>
       <r>    8.9807    0.0000 </r>
       <r>    9.3275    0.0000 </r>
       <r>    9.7420    0.0000 </r>
       <r>    9.8632    0.0000 </r>
      </set>
      <set comment="kpoint 18">
       <r>   -5.0266    1.0000 </r>
       <r>   -4.6589    1.0000 </r>
       <r>   -3.3667    1.0000 </r>
       <r>   -3.1336    1.0000 </r>
       <r>   -0.9432    1.0000 </r>
       <r>   -0.6793    1.0000 </r>
       <r>    0.9561    1.0000 </r>
       <r>    1.4050    1.0000 </r>
       <r>    1.5197    1.0000 </r>
       <r>    1.6093    1.0000 </r>
       <r>    2.7035    1.0000 </r>
       <r>    3.0239    1.0000 </r>
       <r>    3.1585    1.0000 </r>
       <r>    3.2872    1.0000 </r>
       <r>    3.9909    1.0000 </r>
       <r>    4.5228    1.0000 </r>
       <r>    7.9616    0.0000 </r>
       <r>    8.1343    0.0000 </r>
       <r>    8.3775    0.0000 </r>
       <r>    8.8131    0.0000 </r>
       <r>    9.1325    0.0000 </r>
       <r>    9.4468    0.0000 </r>
       <r>    9.6443    0.0000 </r>
       <r>    9.7290    0.0000 </r>
       <r>   10.1586    0.0000 </r>
      </set>
      <set comment="kpoint 19">
       <r>   -5.0980    1.0000 </r>
       <r>   -4.0352    1.0000 </r>
       <r>   -4.0352    1.0000 </r>
       <r>   -3.2072    1.0000 </r>
       <r>   -0.9060    1.0000 </r>
       <r>    0.0702    1.0000 </r>
       <r>    0.0702    1.0000 </r>
       <r>    1.3452    1.0000 </r>
       <r>    1.5657    1.0000 </r>
       <r>    2.0654    1.0000 </r>
       <r>    2.0654    1.0000 </r>
       <r>    2.9873    1.0000 </r>
       <r>    3.5886    1.0000 </r>
       <r>    3.5886    1.0000 </r>
       <r>    3.6708    1.0000 </r>
       <r>    4.9357    1.0000 </r>
       <r>    7.3461    0.0000 </r>
       <r>    8.5478    0.0000 </r>
       <r>    8.8100    0.0000 </r>
       <r>    8.8100    0.0000 </r>
       <r>    9.2793    0.0000 </r>
       <r>    9.2793    0.0000 </r>
       <r>    9.3331    0.0000 </r>
       <r>    9.6218    0.0000 </r>
       <r>    9.7755    0.0000 </r>
      </set>
      <set comment="kpoint 20">
       <r>   -4.8017    1.0000 </r>
       <r>   -4.4458    1.0000 </r>
       <r>   -3.7925    1.0000 </r>
       <r>   -3.5125    1.0000 </r>
       <r>   -0.5915    1.0000 </r>
       <r>   -0.2619    1.0000 </r>
       <r>    0.5618    1.0000 </r>
       <r>    1.0583    1.0000 </r>
       <r>    1.4926    1.0000 </r>
       <r>    1.7389    1.0000 </r>
       <r>    2.3057    1.0000 </r>
       <r>    2.6168    1.0000 </r>
       <r>    3.7077    1.0000 </r>
       <r>    3.7653    1.0000 </r>
       <r>    4.1400    1.0000 </r>
       <r>    4.6261    1.0000 </r>
       <r>    7.7437    0.0000 </r>
       <r>    8.4246    0.0000 </r>
       <r>    8.5978    0.0000 </r>
       <r>    8.8686    0.0000 </r>
       <r>    8.9926    0.0000 </r>
       <r>    9.2087    0.0000 </r>
       <r>    9.7647    0.0000 </r>
       <r>   10.2439    0.0000 </r>
       <r>   10.3787    0.0000 </r>
      </set>
      <set comment="kpoint 21">
       <r>   -4.5176    1.0000 </r>
       <r>   -4.1791    1.0000 </r>
       <r>   -4.1791    1.0000 </r>
       <r>   -3.8650    1.0000 </r>
       <r>   -0.2229    1.0000 </r>
       <r>    0.1635    1.0000 </r>
       <r>    0.1635    1.0000 </r>
       <r>    0.6035    1.0000 </r>
       <r>    1.6816    1.0000 </r>
       <r>    1.9579    1.0000 </r>
       <r>    1.9579    1.0000 </r>
       <r>    2.2549    1.0000 </r>
       <r>    4.0893    1.0000 </r>
       <r>    4.1999    1.0000 </r>
       <r>    4.1999    1.0000 </r>
       <r>    4.5286    1.0000 </r>
       <r>    7.8158    0.0000 </r>
       <r>    8.2141    0.0000 </r>
       <r>    8.2141    0.0000 </r>
       <r>    8.2614    0.0000 </r>
       <r>    9.9213    0.0000 </r>
       <r>    9.9213    0.0000 </r>
       <r>    9.9826    0.0000 </r>
       <r>   10.3055    0.0000 </r>
       <r>   10.7692    0.0000 </r>
      </set>
      <set comment="kpoint 22">
       <r>   -6.0940    1.0000 </r>
       <r>   -2.7678    1.0000 </r>
       <r>   -2.7678    1.0000 </r>
       <r>   -2.7678    1.0000 </r>
       <r>   -1.4209    1.0000 </r>
       <r>   -1.4209    1.0000 </r>
       <r>   -1.4209    1.0000 </r>
       <r>    2.4610    1.0000 </r>
       <r>    2.4610    1.0000 </r>
       <r>    2.4610    1.0000 </r>
       <r>    2.9068    1.0000 </r>
       <r>    2.9068    1.0000 </r>
       <r>    2.9068    1.0000 </r>
       <r>    4.6262    1.0000 </r>
       <r>    5.4473    1.0000 </r>
       <r>    5.4473    1.0000 </r>
       <r>    6.4424    0.0000 </r>
       <r>    6.4424    0.0000 </r>
       <r>    6.4424    0.0000 </r>
       <r>    7.0839    0.0000 </r>
       <r>    7.0839    0.0000 </r>
       <r>    7.0839    0.0000 </r>
       <r>    8.1570    0.0000 </r>
       <r>    8.4094    0.0000 </r>
       <r>    8.4094    0.0000 </r>
      </set>
      <set comment="kpoint 23">
       <r>   -5.9882    1.0000 </r>
       <r>   -3.3756    1.0000 </r>
       <r>   -2.7250    1.0000 </r>
       <r>   -2.7250    1.0000 </r>
       <r>   -1.4199    1.0000 </r>
       <r>   -1.4199    1.0000 </r>
       <r>   -0.7072    1.0000 </r>
       <r>    2.1404    1.0000 </r>
       <r>    2.1404    1.0000 </r>
       <r>    2.5831    1.0000 </r>
       <r>    2.8676    1.0000 </r>
       <r>    2.8676    1.0000 </r>
       <r>    3.0017    1.0000 </r>
       <r>    4.0631    1.0000 </r>
       <r>    5.1292    1.0000 </r>
       <r>    5.3189    1.0000 </r>
       <r>    6.4933    0.0000 </r>
       <r>    6.7137    0.0000 </r>
       <r>    6.7137    0.0000 </r>
       <r>    7.3120    0.0000 </r>
       <r>    7.7322    0.0000 </r>
       <r>    7.7322    0.0000 </r>
       <r>    8.1236    0.0000 </r>
       <r>    8.4271    0.0000 </r>
       <r>    8.8376    0.0000 </r>
      </set>
      <set comment="kpoint 24">
       <r>   -5.8124    1.0000 </r>
       <r>   -3.9333    1.0000 </r>
       <r>   -2.6645    1.0000 </r>
       <r>   -2.6645    1.0000 </r>
       <r>   -1.4237    1.0000 </r>
       <r>   -1.4237    1.0000 </r>
       <r>    0.0209    1.0000 </r>
       <r>    1.8665    1.0000 </r>
       <r>    1.8665    1.0000 </r>
       <r>    2.7002    1.0000 </r>
       <r>    2.7002    1.0000 </r>
       <r>    2.7880    1.0000 </r>
       <r>    3.1586    1.0000 </r>
       <r>    3.4523    1.0000 </r>
       <r>    4.7392    1.0000 </r>
       <r>    4.9122    1.0000 </r>
       <r>    6.5994    0.0000 </r>
       <r>    7.2882    0.0000 </r>
       <r>    7.2882    0.0000 </r>
       <r>    7.6673    0.0000 </r>
       <r>    7.8864    0.0000 </r>
       <r>    8.5394    0.0000 </r>
       <r>    8.5394    0.0000 </r>
       <r>    8.8495    0.0000 </r>
       <r>    9.4082    0.0000 </r>
      </set>
      <set comment="kpoint 25">
       <r>   -5.5675    1.0000 </r>
       <r>   -4.4350    1.0000 </r>
       <r>   -2.6034    1.0000 </r>
       <r>   -2.6034    1.0000 </r>
       <r>   -1.4338    1.0000 </r>
       <r>   -1.4338    1.0000 </r>
       <r>    0.7491    1.0000 </r>
       <r>    1.6791    1.0000 </r>
       <r>    1.6791    1.0000 </r>
       <r>    2.5160    1.0000 </r>
       <r>    2.5160    1.0000 </r>
       <r>    2.8160    1.0000 </r>
       <r>    3.0767    1.0000 </r>
       <r>    3.3756    1.0000 </r>
       <r>    4.3440    1.0000 </r>
       <r>    4.4028    1.0000 </r>
       <r>    6.7669    0.0000 </r>
       <r>    7.5759    0.0000 </r>
       <r>    8.0698    0.0000 </r>
       <r>    8.0698    0.0000 </r>
       <r>    8.1354    0.0000 </r>
       <r>    9.3996    0.0000 </r>
       <r>    9.4438    0.0000 </r>
       <r>    9.4438    0.0000 </r>
       <r>   10.0511    0.0000 </r>
      </set>
      <set comment="kpoint 26">
       <r>   -5.2550    1.0000 </r>
       <r>   -4.8767    1.0000 </r>
       <r>   -2.5640    1.0000 </r>
       <r>   -2.5640    1.0000 </r>
       <r>   -1.4437    1.0000 </r>
       <r>   -1.4437    1.0000 </r>
       <r>    1.4637    1.0000 </r>
       <r>    1.5880    1.0000 </r>
       <r>    1.5880    1.0000 </r>
       <r>    2.1539    1.0000 </r>
       <r>    2.4006    1.0000 </r>
       <r>    2.4006    1.0000 </r>
       <r>    3.4491    1.0000 </r>
       <r>    3.6497    1.0000 </r>
       <r>    3.8983    1.0000 </r>
       <r>    3.9754    1.0000 </r>
       <r>    6.9929    0.0000 </r>
       <r>    7.2681    0.0000 </r>
       <r>    8.6975    0.0000 </r>
       <r>    8.9740    0.0000 </r>
       <r>    8.9740    0.0000 </r>
       <r>    9.2901    0.0000 </r>
       <r>    9.9499    0.0000 </r>
       <r>    9.9499    0.0000 </r>
       <r>   10.4368    0.0000 </r>
      </set>
      <set comment="kpoint 27">
       <r>   -5.8832    1.0000 </r>
       <r>   -3.3118    1.0000 </r>
       <r>   -3.3118    1.0000 </r>
       <r>   -2.7153    1.0000 </r>
       <r>   -1.4122    1.0000 </r>
       <r>   -0.7589    1.0000 </r>
       <r>   -0.7589    1.0000 </r>
       <r>    1.8229    1.0000 </r>
       <r>    2.2851    1.0000 </r>
       <r>    2.2851    1.0000 </r>
       <r>    2.9768    1.0000 </r>
       <r>    2.9768    1.0000 </r>
       <r>    3.0733    1.0000 </r>
       <r>    3.5084    1.0000 </r>
       <r>    4.8805    1.0000 </r>
       <r>    5.3691    1.0000 </r>
       <r>    6.6624    0.0000 </r>
       <r>    6.8026    0.0000 </r>
       <r>    6.8026    0.0000 </r>
       <r>    7.9116    0.0000 </r>
       <r>    7.9116    0.0000 </r>
       <r>    8.1189    0.0000 </r>
       <r>    8.4773    0.0000 </r>
       <r>    8.5751    0.0000 </r>
       <r>    8.8588    0.0000 </r>
      </set>
      <set comment="kpoint 28">
       <r>   -5.7090    1.0000 </r>
       <r>   -3.8562    1.0000 </r>
       <r>   -3.2121    1.0000 </r>
       <r>   -2.7180    1.0000 </r>
       <r>   -1.3899    1.0000 </r>
       <r>   -0.8495    1.0000 </r>
       <r>   -0.0988    1.0000 </r>
       <r>    1.6050    1.0000 </r>
       <r>    2.0172    1.0000 </r>
       <r>    2.5233    1.0000 </r>
       <r>    2.8567    1.0000 </r>
       <r>    2.9257    1.0000 </r>
       <r>    3.0874    1.0000 </r>
       <r>    3.1620    1.0000 </r>
       <r>    4.4820    1.0000 </r>
       <r>    5.1499    1.0000 </r>
       <r>    6.9489    0.0000 </r>
       <r>    6.9765    0.0000 </r>
       <r>    7.3852    0.0000 </r>
       <r>    8.1675    0.0000 </r>
       <r>    8.2090    0.0000 </r>
       <r>    8.6315    0.0000 </r>
       <r>    8.6940    0.0000 </r>
       <r>    9.2950    0.0000 </r>
       <r>    9.3356    0.0000 </r>
      </set>
      <set comment="kpoint 29">
       <r>   -5.4666    1.0000 </r>
       <r>   -4.3487    1.0000 </r>
       <r>   -3.0874    1.0000 </r>
       <r>   -2.7546    1.0000 </r>
       <r>   -1.3376    1.0000 </r>
       <r>   -0.9744    1.0000 </r>
       <r>    0.5437    1.0000 </r>
       <r>    1.5071    1.0000 </r>
       <r>    1.7985    1.0000 </r>
       <r>    2.3418    1.0000 </r>
       <r>    2.7543    1.0000 </r>
       <r>    2.8445    1.0000 </r>
       <r>    2.9703    1.0000 </r>
       <r>    3.4296    1.0000 </r>
       <r>    4.0572    1.0000 </r>
       <r>    4.7181    1.0000 </r>
       <r>    7.1491    0.0000 </r>
       <r>    7.5969    0.0000 </r>
       <r>    7.9671    0.0000 </r>
       <r>    8.1649    0.0000 </r>
       <r>    8.6195    0.0000 </r>
       <r>    9.0463    0.0000 </r>
       <r>    9.5701    0.0000 </r>
       <r>    9.9001    0.0000 </r>
       <r>   10.2472    0.0000 </r>
      </set>
      <set comment="kpoint 30">
       <r>   -5.1574    1.0000 </r>
       <r>   -4.7838    1.0000 </r>
       <r>   -2.9547    1.0000 </r>
       <r>   -2.8364    1.0000 </r>
       <r>   -1.2438    1.0000 </r>
       <r>   -1.1150    1.0000 </r>
       <r>    1.1611    1.0000 </r>
       <r>    1.5233    1.0000 </r>
       <r>    1.6295    1.0000 </r>
       <r>    1.7569    1.0000 </r>
       <r>    2.7422    1.0000 </r>
       <r>    2.8284    1.0000 </r>
       <r>    3.2248    1.0000 </r>
       <r>    3.6347    1.0000 </r>
       <r>    3.7879    1.0000 </r>
       <r>    4.2319    1.0000 </r>
       <r>    7.3964    0.0000 </r>
       <r>    7.6781    0.0000 </r>
       <r>    8.4184    0.0000 </r>
       <r>    9.0514    0.0000 </r>
       <r>    9.1219    0.0000 </r>
       <r>    9.3963    0.0000 </r>
       <r>    9.4881    0.0000 </r>
       <r>   10.0542    0.0000 </r>
       <r>   10.0752    0.0000 </r>
      </set>
      <set comment="kpoint 31">
       <r>   -5.5375    1.0000 </r>
       <r>   -3.7320    1.0000 </r>
       <r>   -3.7320    1.0000 </r>
       <r>   -2.8222    1.0000 </r>
       <r>   -1.3135    1.0000 </r>
       <r>   -0.2870    1.0000 </r>
       <r>   -0.2870    1.0000 </r>
       <r>    1.4666    1.0000 </r>
       <r>    2.2511    1.0000 </r>
       <r>    2.2511    1.0000 </r>
       <r>    2.3718    1.0000 </r>
       <r>    3.1262    1.0000 </r>
       <r>    3.1262    1.0000 </r>
       <r>    3.3413    1.0000 </r>
       <r>    4.0827    1.0000 </r>
       <r>    5.1981    1.0000 </r>
       <r>    6.9765    0.0000 </r>
       <r>    7.5419    0.0000 </r>
       <r>    7.5419    0.0000 </r>
       <r>    8.2632    0.0000 </r>
       <r>    8.8572    0.0000 </r>
       <r>    8.9540    0.0000 </r>
       <r>    8.9540    0.0000 </r>
       <r>    9.2025    0.0000 </r>
       <r>   10.2184    0.0000 </r>
      </set>
      <set comment="kpoint 32">
       <r>   -5.2993    1.0000 </r>
       <r>   -4.2078    1.0000 </r>
       <r>   -3.5679    1.0000 </r>
       <r>   -2.9787    1.0000 </r>
       <r>   -1.1811    1.0000 </r>
       <r>   -0.5197    1.0000 </r>
       <r>    0.2531    1.0000 </r>
       <r>    1.4557    1.0000 </r>
       <r>    1.8269    1.0000 </r>
       <r>    1.9842    1.0000 </r>
       <r>    2.5461    1.0000 </r>
       <r>    3.1355    1.0000 </r>
       <r>    3.4019    1.0000 </r>
       <r>    3.5092    1.0000 </r>
       <r>    3.6640    1.0000 </r>
       <r>    4.9390    1.0000 </r>
       <r>    7.3373    0.0000 </r>
       <r>    7.7502    0.0000 </r>
       <r>    8.3178    0.0000 </r>
       <r>    8.3728    0.0000 </r>
       <r>    8.8529    0.0000 </r>
       <r>    9.3196    0.0000 </r>
       <r>    9.6752    0.0000 </r>
       <r>    9.6905    0.0000 </r>
       <r>    9.9900    0.0000 </r>
      </set>
      <set comment="kpoint 33">
       <r>   -4.9962    1.0000 </r>
       <r>   -4.6310    1.0000 </r>
       <r>   -3.3753    1.0000 </r>
       <r>   -3.1713    1.0000 </r>
       <r>   -0.9935    1.0000 </r>
       <r>   -0.7653    1.0000 </r>
       <r>    0.7766    1.0000 </r>
       <r>    1.2970    1.0000 </r>
       <r>    1.5564    1.0000 </r>
       <r>    1.7427    1.0000 </r>
       <r>    2.8852    1.0000 </r>
       <r>    3.2130    1.0000 </r>
       <r>    3.2601    1.0000 </r>
       <r>    3.3260    1.0000 </r>
       <r>    3.9818    1.0000 </r>
       <r>    4.4886    1.0000 </r>
       <r>    7.9950    0.0000 </r>
       <r>    7.9963    0.0000 </r>
       <r>    8.2486    0.0000 </r>
       <r>    8.8411    0.0000 </r>
       <r>    9.1276    0.0000 </r>
       <r>    9.2252    0.0000 </r>
       <r>    9.6083    0.0000 </r>
       <r>    9.8312    0.0000 </r>
       <r>   10.2080    0.0000 </r>
      </set>
      <set comment="kpoint 34">
       <r>   -5.0674    1.0000 </r>
       <r>   -4.0169    1.0000 </r>
       <r>   -4.0169    1.0000 </r>
       <r>   -3.2441    1.0000 </r>
       <r>   -0.9683    1.0000 </r>
       <r>   -0.0748    1.0000 </r>
       <r>   -0.0748    1.0000 </r>
       <r>    1.3200    1.0000 </r>
       <r>    1.5221    1.0000 </r>
       <r>    2.2282    1.0000 </r>
       <r>    2.2282    1.0000 </r>
       <r>    3.2572    1.0000 </r>
       <r>    3.6202    1.0000 </r>
       <r>    3.6202    1.0000 </r>
       <r>    3.6944    1.0000 </r>
       <r>    4.9117    1.0000 </r>
       <r>    7.3822    0.0000 </r>
       <r>    8.3893    0.0000 </r>
       <r>    8.5158    0.0000 </r>
       <r>    8.5158    0.0000 </r>
       <r>    9.2675    0.0000 </r>
       <r>    9.2932    0.0000 </r>
       <r>    9.2932    0.0000 </r>
       <r>    9.4911    0.0000 </r>
       <r>   10.1750    0.0000 </r>
      </set>
      <set comment="kpoint 35">
       <r>   -4.7736    1.0000 </r>
       <r>   -4.4216    1.0000 </r>
       <r>   -3.7839    1.0000 </r>
       <r>   -3.5205    1.0000 </r>
       <r>   -0.7056    1.0000 </r>
       <r>   -0.4026    1.0000 </r>
       <r>    0.3725    1.0000 </r>
       <r>    0.8350    1.0000 </r>
       <r>    1.6881    1.0000 </r>
       <r>    1.9317    1.0000 </r>
       <r>    2.5258    1.0000 </r>
       <r>    2.8719    1.0000 </r>
       <r>    3.7343    1.0000 </r>
       <r>    3.7887    1.0000 </r>
       <r>    4.1440    1.0000 </r>
       <r>    4.6146    1.0000 </r>
       <r>    7.7730    0.0000 </r>
       <r>    8.4437    0.0000 </r>
       <r>    8.4937    0.0000 </r>
       <r>    8.6764    0.0000 </r>
       <r>    8.9472    0.0000 </r>
       <r>    9.0975    0.0000 </r>
       <r>    9.4052    0.0000 </r>
       <r>   10.1240    0.0000 </r>
       <r>   10.3710    0.0000 </r>
      </set>
      <set comment="kpoint 36">
       <r>   -4.4933    1.0000 </r>
       <r>   -4.1607    1.0000 </r>
       <r>   -4.1607    1.0000 </r>
       <r>   -3.8563    1.0000 </r>
       <r>   -0.3802    1.0000 </r>
       <r>   -0.0184    1.0000 </r>
       <r>   -0.0184    1.0000 </r>
       <r>    0.3939    1.0000 </r>
       <r>    1.9047    1.0000 </r>
       <r>    2.1902    1.0000 </r>
       <r>    2.1902    1.0000 </r>
       <r>    2.5081    1.0000 </r>
       <r>    4.1048    1.0000 </r>
       <r>    4.2108    1.0000 </r>
       <r>    4.2108    1.0000 </r>
       <r>    4.5294    1.0000 </r>
       <r>    7.8356    0.0000 </r>
       <r>    8.2159    0.0000 </r>
       <r>    8.2159    0.0000 </r>
       <r>    8.2336    0.0000 </r>
       <r>    9.6276    0.0000 </r>
       <r>    9.6276    0.0000 </r>
       <r>    9.8197    0.0000 </r>
       <r>    9.9290    0.0000 </r>
       <r>   10.5243    0.0000 </r>
      </set>
      <set comment="kpoint 37">
       <r>   -5.7793    1.0000 </r>
       <r>   -3.2640    1.0000 </r>
       <r>   -3.2640    1.0000 </r>
       <r>   -3.2640    1.0000 </r>
       <r>   -0.8326    1.0000 </r>
       <r>   -0.8326    1.0000 </r>
       <r>   -0.8326    1.0000 </r>
       <r>    2.0260    1.0000 </r>
       <r>    2.0260    1.0000 </r>
       <r>    2.0260    1.0000 </r>
       <r>    2.9664    1.0000 </r>
       <r>    3.1644    1.0000 </r>
       <r>    3.1644    1.0000 </r>
       <r>    3.1644    1.0000 </r>
       <r>    5.1125    1.0000 </r>
       <r>    5.1125    1.0000 </r>
       <r>    6.7791    0.0000 </r>
       <r>    6.7791    0.0000 </r>
       <r>    6.7791    0.0000 </r>
       <r>    7.8352    0.0000 </r>
       <r>    8.6252    0.0000 </r>
       <r>    8.6252    0.0000 </r>
       <r>    8.6252    0.0000 </r>
       <r>    8.8764    0.0000 </r>
       <r>    8.8764    0.0000 </r>
      </set>
      <set comment="kpoint 38">
       <r>   -5.6069    1.0000 </r>
       <r>   -3.7882    1.0000 </r>
       <r>   -3.1959    1.0000 </r>
       <r>   -3.1959    1.0000 </r>
       <r>   -0.9415    1.0000 </r>
       <r>   -0.9415    1.0000 </r>
       <r>   -0.2621    1.0000 </r>
       <r>    1.8578    1.0000 </r>
       <r>    1.8578    1.0000 </r>
       <r>    2.3633    1.0000 </r>
       <r>    2.4036    1.0000 </r>
       <r>    3.1900    1.0000 </r>
       <r>    3.1900    1.0000 </r>
       <r>    3.3148    1.0000 </r>
       <r>    4.7782    1.0000 </r>
       <r>    4.9861    1.0000 </r>
       <r>    6.9667    0.0000 </r>
       <r>    7.0951    0.0000 </r>
       <r>    7.0951    0.0000 </r>
       <r>    7.8891    0.0000 </r>
       <r>    8.7594    0.0000 </r>
       <r>    8.8748    0.0000 </r>
       <r>    9.2884    0.0000 </r>
       <r>    9.4683    0.0000 </r>
       <r>    9.4683    0.0000 </r>
      </set>
      <set comment="kpoint 39">
       <r>   -5.3673    1.0000 </r>
       <r>   -4.2680    1.0000 </r>
       <r>   -3.1266    1.0000 </r>
       <r>   -3.1266    1.0000 </r>
       <r>   -1.0542    1.0000 </r>
       <r>   -1.0542    1.0000 </r>
       <r>    0.2820    1.0000 </r>
       <r>    1.7796    1.0000 </r>
       <r>    1.7796    1.0000 </r>
       <r>    1.8549    1.0000 </r>
       <r>    2.8220    1.0000 </r>
       <r>    3.1113    1.0000 </r>
       <r>    3.1113    1.0000 </r>
       <r>    3.5218    1.0000 </r>
       <r>    4.4246    1.0000 </r>
       <r>    4.5438    1.0000 </r>
       <r>    7.2138    0.0000 </r>
       <r>    7.7069    0.0000 </r>
       <r>    7.7069    0.0000 </r>
       <r>    7.9909    0.0000 </r>
       <r>    8.8572    0.0000 </r>
       <r>    9.2270    0.0000 </r>
       <r>    9.7603    0.0000 </r>
       <r>   10.2687    0.0000 </r>
       <r>   10.2687    0.0000 </r>
      </set>
      <set comment="kpoint 40">
       <r>   -5.0623    1.0000 </r>
       <r>   -4.6946    1.0000 </r>
       <r>   -3.0816    1.0000 </r>
       <r>   -3.0816    1.0000 </r>
       <r>   -1.1273    1.0000 </r>
       <r>   -1.1273    1.0000 </r>
       <r>    0.8057    1.0000 </r>
       <r>    1.3248    1.0000 </r>
       <r>    1.7577    1.0000 </r>
       <r>    1.7577    1.0000 </r>
       <r>    3.0359    1.0000 </r>
       <r>    3.0359    1.0000 </r>
       <r>    3.3722    1.0000 </r>
       <r>    3.7812    1.0000 </r>
       <r>    3.9679    1.0000 </r>
       <r>    4.0859    1.0000 </r>
       <r>    7.5013    0.0000 </r>
       <r>    7.7940    0.0000 </r>
       <r>    8.5180    0.0000 </r>
       <r>    8.5180    0.0000 </r>
       <r>    9.3870    0.0000 </r>
       <r>    9.4620    0.0000 </r>
       <r>    9.4620    0.0000 </r>
       <r>    9.6473    0.0000 </r>
       <r>   10.2370    0.0000 </r>
      </set>
      <set comment="kpoint 41">
       <r>   -5.4378    1.0000 </r>
       <r>   -3.6819    1.0000 </r>
       <r>   -3.6819    1.0000 </r>
       <r>   -3.1883    1.0000 </r>
       <r>   -1.0467    1.0000 </r>
       <r>   -0.4915    1.0000 </r>
       <r>   -0.4915    1.0000 </r>
       <r>    1.8006    1.0000 </r>
       <r>    1.8606    1.0000 </r>
       <r>    2.2533    1.0000 </r>
       <r>    2.2533    1.0000 </r>
       <r>    3.3636    1.0000 </r>
       <r>    3.3636    1.0000 </r>
       <r>    3.4250    1.0000 </r>
       <r>    4.5311    1.0000 </r>
       <r>    5.0322    1.0000 </r>
       <r>    7.0989    0.0000 </r>
       <r>    7.2857    0.0000 </r>
       <r>    7.2857    0.0000 </r>
       <r>    7.7764    0.0000 </r>
       <r>    8.9570    0.0000 </r>
       <r>    9.2423    0.0000 </r>
       <r>    9.6922    0.0000 </r>
       <r>    9.6922    0.0000 </r>
       <r>   10.3362    0.0000 </r>
      </set>
      <set comment="kpoint 42">
       <r>   -5.2032    1.0000 </r>
       <r>   -4.1379    1.0000 </r>
       <r>   -3.5492    1.0000 </r>
       <r>   -3.2139    1.0000 </r>
       <r>   -1.1069    1.0000 </r>
       <r>   -0.7356    1.0000 </r>
       <r>   -0.0531    1.0000 </r>
       <r>    1.3390    1.0000 </r>
       <r>    1.8387    1.0000 </r>
       <r>    2.1647    1.0000 </r>
       <r>    2.7435    1.0000 </r>
       <r>    3.3575    1.0000 </r>
       <r>    3.4928    1.0000 </r>
       <r>    3.6150    1.0000 </r>
       <r>    4.1539    1.0000 </r>
       <r>    4.8054    1.0000 </r>
       <r>    7.4500    0.0000 </r>
       <r>    7.5341    0.0000 </r>
       <r>    7.8822    0.0000 </r>
       <r>    7.9458    0.0000 </r>
       <r>    8.8897    0.0000 </r>
       <r>    9.5442    0.0000 </r>
       <r>    9.8534    0.0000 </r>
       <r>   10.0104    0.0000 </r>
       <r>   10.2135    0.0000 </r>
      </set>
      <set comment="kpoint 43">
       <r>   -4.9056    1.0000 </r>
       <r>   -4.5487    1.0000 </r>
       <r>   -3.4097    1.0000 </r>
       <r>   -3.2897    1.0000 </r>
       <r>   -1.0760    1.0000 </r>
       <r>   -0.9443    1.0000 </r>
       <r>    0.3882    1.0000 </r>
       <r>    0.8488    1.0000 </r>
       <r>    1.9389    1.0000 </r>
       <r>    2.0595    1.0000 </r>
       <r>    3.2589    1.0000 </r>
       <r>    3.3795    1.0000 </r>
       <r>    3.4451    1.0000 </r>
       <r>    3.7335    1.0000 </r>
       <r>    3.9571    1.0000 </r>
       <r>    4.3845    1.0000 </r>
       <r>    7.8087    0.0000 </r>
       <r>    8.0189    0.0000 </r>
       <r>    8.0907    0.0000 </r>
       <r>    8.6726    0.0000 </r>
       <r>    8.9235    0.0000 </r>
       <r>    9.0418    0.0000 </r>
       <r>    9.5666    0.0000 </r>
       <r>    9.5916    0.0000 </r>
       <r>   10.0056    0.0000 </r>
      </set>
      <set comment="kpoint 44">
       <r>   -4.9765    1.0000 </r>
       <r>   -3.9657    1.0000 </r>
       <r>   -3.9657    1.0000 </r>
       <r>   -3.3603    1.0000 </r>
       <r>   -1.0731    1.0000 </r>
       <r>   -0.3946    1.0000 </r>
       <r>   -0.3946    1.0000 </r>
       <r>    0.8456    1.0000 </r>
       <r>    1.9732    1.0000 </r>
       <r>    2.5883    1.0000 </r>
       <r>    2.5883    1.0000 </r>
       <r>    3.7147    1.0000 </r>
       <r>    3.7147    1.0000 </r>
       <r>    3.7643    1.0000 </r>
       <r>    3.7874    1.0000 </r>
       <r>    4.8395    1.0000 </r>
       <r>    7.4854    0.0000 </r>
       <r>    7.9666    0.0000 </r>
       <r>    8.1007    0.0000 </r>
       <r>    8.1007    0.0000 </r>
       <r>    9.1409    0.0000 </r>
       <r>    9.3270    0.0000 </r>
       <r>    9.3270    0.0000 </r>
       <r>    9.3335    0.0000 </r>
       <r>   10.6337    0.0000 </r>
      </set>
      <set comment="kpoint 45">
       <r>   -4.6906    1.0000 </r>
       <r>   -4.3508    1.0000 </r>
       <r>   -3.7642    1.0000 </r>
       <r>   -3.5532    1.0000 </r>
       <r>   -0.9329    1.0000 </r>
       <r>   -0.6984    1.0000 </r>
       <r>   -0.0220    1.0000 </r>
       <r>    0.3905    1.0000 </r>
       <r>    2.1628    1.0000 </r>
       <r>    2.3802    1.0000 </r>
       <r>    3.0028    1.0000 </r>
       <r>    3.4007    1.0000 </r>
       <r>    3.8139    1.0000 </r>
       <r>    3.8580    1.0000 </r>
       <r>    4.1522    1.0000 </r>
       <r>    4.5767    1.0000 </r>
       <r>    7.8521    0.0000 </r>
       <r>    8.1556    0.0000 </r>
       <r>    8.2715    0.0000 </r>
       <r>    8.4653    0.0000 </r>
       <r>    8.9099    0.0000 </r>
       <r>    8.9498    0.0000 </r>
       <r>    8.9762    0.0000 </r>
       <r>    9.7389    0.0000 </r>
       <r>    9.7608    0.0000 </r>
      </set>
      <set comment="kpoint 46">
       <r>   -4.4223    1.0000 </r>
       <r>   -4.1091    1.0000 </r>
       <r>   -4.1091    1.0000 </r>
       <r>   -3.8364    1.0000 </r>
       <r>   -0.7004    1.0000 </r>
       <r>   -0.3915    1.0000 </r>
       <r>   -0.3915    1.0000 </r>
       <r>   -0.0266    1.0000 </r>
       <r>    2.4237    1.0000 </r>
       <r>    2.7107    1.0000 </r>
       <r>    2.7107    1.0000 </r>
       <r>    3.0530    1.0000 </r>
       <r>    4.1493    1.0000 </r>
       <r>    4.2407    1.0000 </r>
       <r>    4.2407    1.0000 </r>
       <r>    4.5292    1.0000 </r>
       <r>    7.8783    0.0000 </r>
       <r>    8.0964    0.0000 </r>
       <r>    8.1815    0.0000 </r>
       <r>    8.1815    0.0000 </r>
       <r>    9.1666    0.0000 </r>
       <r>    9.1666    0.0000 </r>
       <r>    9.4135    0.0000 </r>
       <r>    9.5014    0.0000 </r>
       <r>    9.8741    0.0000 </r>
      </set>
      <set comment="kpoint 47">
       <r>   -5.2729    1.0000 </r>
       <r>   -3.6105    1.0000 </r>
       <r>   -3.6105    1.0000 </r>
       <r>   -3.6105    1.0000 </r>
       <r>   -0.7410    1.0000 </r>
[...]
       <r>   -1.0094    1.0000 </r>
       <r>   -0.1017    1.0000 </r>
       <r>    3.2310    1.0000 </r>
       <r>    3.2310    1.0000 </r>
       <r>    3.2310    1.0000 </r>
       <r>    4.0248    1.0000 </r>
       <r>    4.0248    1.0000 </r>
       <r>    4.0248    1.0000 </r>
       <r>    4.5647    1.0000 </r>
       <r>    4.5647    1.0000 </r>
       <r>    7.2288    0.0000 </r>
       <r>    7.7630    0.0000 </r>
       <r>    7.7630    0.0000 </r>
       <r>    7.7630    0.0000 </r>
       <r>    9.0793    0.0000 </r>
       <r>    9.0793    0.0000 </r>
       <r>    9.2282    0.0000 </r>
       <r>    9.2282    0.0000 </r>
       <r>    9.2282    0.0000 </r>
      </set>
      <set comment="kpoint 54">
       <r>   -4.3799    1.0000 </r>
       <r>   -4.1032    1.0000 </r>
       <r>   -3.7701    1.0000 </r>
       <r>   -3.7701    1.0000 </r>
       <r>   -1.1627    1.0000 </r>
       <r>   -1.1627    1.0000 </r>
       <r>   -0.7996    1.0000 </r>
       <r>   -0.4911    1.0000 </r>
       <r>    3.3700    1.0000 </r>
       <r>    3.3700    1.0000 </r>
       <r>    3.8736    1.0000 </r>
       <r>    4.1260    1.0000 </r>
       <r>    4.1260    1.0000 </r>
       <r>    4.1988    1.0000 </r>
       <r>    4.3845    1.0000 </r>
       <r>    4.3860    1.0000 </r>
       <r>    7.3659    0.0000 </r>
       <r>    7.6824    0.0000 </r>
       <r>    7.8887    0.0000 </r>
       <r>    7.8887    0.0000 </r>
       <r>    8.8616    0.0000 </r>
       <r>    8.8616    0.0000 </r>
       <r>    8.8818    0.0000 </r>
       <r>    8.9212    0.0000 </r>
       <r>    9.2181    0.0000 </r>
      </set>
      <set comment="kpoint 55">
       <r>   -4.1739    1.0000 </r>
       <r>   -3.9606    1.0000 </r>
       <r>   -3.9606    1.0000 </r>
       <r>   -3.8412    1.0000 </r>
       <r>   -1.1915    1.0000 </r>
       <r>   -1.0625    1.0000 </r>
       <r>   -1.0625    1.0000 </r>
       <r>   -0.8296    1.0000 </r>
       <r>    3.6995    1.0000 </r>
       <r>    3.8823    1.0000 </r>
       <r>    3.8823    1.0000 </r>
       <r>    4.2006    1.0000 </r>
       <r>    4.2977    1.0000 </r>
       <r>    4.3258    1.0000 </r>
       <r>    4.3258    1.0000 </r>
       <r>    4.4955    1.0000 </r>
       <r>    7.3174    0.0000 </r>
       <r>    7.5856    0.0000 </r>
       <r>    7.5856    0.0000 </r>
       <r>    7.6532    0.0000 </r>
       <r>    8.8678    0.0000 </r>
       <r>    8.8678    0.0000 </r>
       <r>    8.9400    0.0000 </r>
       <r>    9.0282    0.0000 </r>
       <r>    9.0327    0.0000 </r>
      </set>
      <set comment="kpoint 56">
       <r>   -4.0311    1.0000 </r>
       <r>   -3.9118    1.0000 </r>
       <r>   -3.9118    1.0000 </r>
       <r>   -3.9118    1.0000 </r>
       <r>   -1.2251    1.0000 </r>
       <r>   -1.2251    1.0000 </r>
       <r>   -1.2251    1.0000 </r>
       <r>   -1.0965    1.0000 </r>
       <r>    4.2324    1.0000 </r>
       <r>    4.2324    1.0000 </r>
       <r>    4.2324    1.0000 </r>
       <r>    4.3789    1.0000 </r>
       <r>    4.3789    1.0000 </r>
       <r>    4.3789    1.0000 </r>
       <r>    4.4478    1.0000 </r>
       <r>    4.4478    1.0000 </r>
       <r>    7.0936    0.0000 </r>
       <r>    7.2751    0.0000 </r>
       <r>    7.2751    0.0000 </r>
       <r>    7.2751    0.0000 </r>
       <r>    8.9159    0.0000 </r>
       <r>    8.9159    0.0000 </r>
       <r>    8.9159    0.0000 </r>
       <r>    8.9771    0.0000 </r>
       <r>    8.9771    0.0000 </r>
      </set>
     </set>
    </set>
   </array>
  </eigenvalues>
  <separator name="orbital magnetization" >
   <v name="MAGDIPOLOUT">      0.00000000      0.00000000      0.00000000</v>
  </separator>
  <dos>
   <i name="efermi">      5.91398667 </i>
   <total>
    <array>
     <dimension dim="1">gridpoints</dimension>
     <dimension dim="2">spin</dimension>
     <field>energy</field>
     <field>total</field>
     <field>integrated</field>
     <set>
      <set comment="spin 1">
       <r>    -7.2003     0.0000     0.0000 </r>
       <r>    -7.1368     0.0000     0.0000 </r>
       <r>    -7.0733     0.0000     0.0000 </r>
       <r>    -7.0098     0.0000     0.0000 </r>
       <r>    -6.9463     0.0000     0.0000 </r>
       <r>    -6.8828     0.0000     0.0000 </r>
       <r>    -6.8193     0.0000     0.0000 </r>
       <r>    -6.7558     0.0000     0.0000 </r>
       <r>    -6.6923     0.0000     0.0000 </r>
       <r>    -6.6288     0.0000     0.0000 </r>
       <r>    -6.5653     0.0000     0.0000 </r>
       <r>    -6.5018     0.0000     0.0000 </r>
       <r>    -6.4383     0.0000     0.0000 </r>
       <r>    -6.3748     0.0004     0.0000 </r>
       <r>    -6.3113     0.0053     0.0004 </r>
       <r>    -6.2478     0.0344     0.0025 </r>
       <r>    -6.1843     0.1238     0.0104 </r>
       <r>    -6.1208     0.2754     0.0279 </r>
       <r>    -6.0573     0.4454     0.0562 </r>
       <r>    -5.9938     0.5836     0.0932 </r>
       <r>    -5.9303     0.6713     0.1359 </r>
       <r>    -5.8669     0.7846     0.1857 </r>
       <r>    -5.8034     0.8934     0.2424 </r>
       <r>    -5.7399     0.9431     0.3023 </r>
       <r>    -5.6764     0.9686     0.3638 </r>
       <r>    -5.6129     1.0556     0.4308 </r>
       <r>    -5.5494     1.2266     0.5087 </r>
       <r>    -5.4859     1.2919     0.5907 </r>
       <r>    -5.4224     1.2029     0.6671 </r>
       <r>    -5.3589     1.1892     0.7426 </r>
       <r>    -5.2954     1.4199     0.8328 </r>
       <r>    -5.2319     1.6093     0.9350 </r>
       <r>    -5.1684     1.5798     1.0353 </r>
       <r>    -5.1049     1.4874     1.1297 </r>
       <r>    -5.0414     1.5513     1.2282 </r>
       <r>    -4.9779     1.6581     1.3335 </r>
       <r>    -4.9144     1.6717     1.4397 </r>
       <r>    -4.8509     1.7981     1.5538 </r>
       <r>    -4.7874     2.0545     1.6843 </r>
       <r>    -4.7239     2.1060     1.8180 </r>
       <r>    -4.6604     1.9201     1.9399 </r>
       <r>    -4.5969     1.7891     2.0535 </r>
       <r>    -4.5334     1.8563     2.1714 </r>
       <r>    -4.4699     2.1626     2.3087 </r>
       <r>    -4.4064     2.5638     2.4715 </r>
       <r>    -4.3429     2.6141     2.6375 </r>
       <r>    -4.2794     2.3420     2.7862 </r>
       <r>    -4.2159     2.3629     2.9362 </r>
       <r>    -4.1524     2.6174     3.1024 </r>
       <r>    -4.0889     2.6764     3.2724 </r>
       <r>    -4.0255     2.7522     3.4471 </r>
       <r>    -3.9620     3.0092     3.6382 </r>
       <r>    -3.8985     3.3189     3.8489 </r>
       <r>    -3.8350     3.7778     4.0888 </r>
       <r>    -3.7715     4.0693     4.3472 </r>
       <r>    -3.7080     3.5635     4.5735 </r>
       <r>    -3.6445     2.8238     4.7528 </r>
       <r>    -3.5810     2.9795     4.9420 </r>
       <r>    -3.5175     3.3787     5.1565 </r>
       <r>    -3.4540     2.9975     5.3468 </r>
       <r>    -3.3905     2.6413     5.5145 </r>
       <r>    -3.3270     2.7870     5.6915 </r>
       <r>    -3.2635     3.0451     5.8848 </r>
       <r>    -3.2000     3.3480     6.0974 </r>
       <r>    -3.1365     3.2685     6.3050 </r>
       <r>    -3.0730     2.6231     6.4715 </r>
       <r>    -3.0095     1.8925     6.5917 </r>
       <r>    -2.9460     1.5446     6.6898 </r>
       <r>    -2.8825     1.5481     6.7881 </r>
       <r>    -2.8190     1.8865     6.9079 </r>
       <r>    -2.7555     2.5664     7.0708 </r>
       <r>    -2.6920     2.9277     7.2567 </r>
       <r>    -2.6285     2.5830     7.4207 </r>
       <r>    -2.5650     1.9871     7.5469 </r>
       <r>    -2.5015     1.3641     7.6335 </r>
       <r>    -2.4380     0.8875     7.6899 </r>
       <r>    -2.3745     0.7058     7.7347 </r>
       <r>    -2.3110     0.7048     7.7794 </r>
       <r>    -2.2475     0.7798     7.8290 </r>
       <r>    -2.1841     0.8512     7.8830 </r>
       <r>    -2.1206     0.9340     7.9423 </r>
       <r>    -2.0571     1.0457     8.0087 </r>
       <r>    -1.9936     1.0543     8.0756 </r>
       <r>    -1.9301     0.8453     8.1293 </r>
       <r>    -1.8666     0.5847     8.1664 </r>
       <r>    -1.8031     0.4651     8.1960 </r>
       <r>    -1.7396     0.4520     8.2247 </r>
       <r>    -1.6761     0.5083     8.2570 </r>
       <r>    -1.6126     0.5919     8.2945 </r>
       <r>    -1.5491     0.8960     8.3514 </r>
       <r>    -1.4856     1.9972     8.4783 </r>
       <r>    -1.4221     3.4588     8.6979 </r>
       <r>    -1.3586     3.5798     8.9252 </r>
       <r>    -1.2951     2.6181     9.0914 </r>
       <r>    -1.2316     2.3759     9.2423 </r>
       <r>    -1.1681     3.3191     9.4530 </r>
       <r>    -1.1046     4.7225     9.7529 </r>
       <r>    -1.0411     5.4718    10.1003 </r>
       <r>    -0.9776     5.3575    10.4405 </r>
       <r>    -0.9141     4.6301    10.7345 </r>
       <r>    -0.8506     3.6685    10.9675 </r>
       <r>    -0.7871     3.7203    11.2037 </r>
       <r>    -0.7236     4.3236    11.4782 </r>
       <r>    -0.6601     3.6589    11.7105 </r>
       <r>    -0.5966     2.1275    11.8456 </r>
       <r>    -0.5331     1.5925    11.9467 </r>
       <r>    -0.4696     2.2338    12.0886 </r>
       <r>    -0.4062     2.8640    12.2704 </r>
       <r>    -0.3427     2.5825    12.4344 </r>
       <r>    -0.2792     1.8256    12.5503 </r>
       <r>    -0.2157     1.3530    12.6363 </r>
       <r>    -0.1522     1.3834    12.7241 </r>
       <r>    -0.0887     2.2266    12.8655 </r>
       <r>    -0.0252     3.0635    13.0600 </r>
       <r>     0.0383     2.6299    13.2270 </r>
       <r>     0.1018     1.5170    13.3233 </r>
       <r>     0.1653     0.8349    13.3763 </r>
       <r>     0.2288     0.7864    13.4263 </r>
       <r>     0.2923     1.2060    13.5028 </r>
       <r>     0.3558     1.8914    13.6229 </r>
       <r>     0.4193     2.1284    13.7581 </r>
       <r>     0.4828     1.5111    13.8540 </r>
       <r>     0.5463     0.9885    13.9168 </r>
       <r>     0.6098     0.8457    13.9705 </r>
       <r>     0.6733     0.7484    14.0180 </r>
       <r>     0.7368     0.9986    14.0814 </r>
       <r>     0.8003     1.7146    14.1903 </r>
       <r>     0.8638     2.0400    14.3198 </r>
       <r>     0.9273     1.4384    14.4112 </r>
       <r>     0.9908     0.7110    14.4563 </r>
       <r>     1.0543     0.4425    14.4844 </r>
       <r>     1.1178     0.4748    14.5145 </r>
       <r>     1.1813     0.6146    14.5536 </r>
       <r>     1.2448     0.9717    14.6153 </r>
       <r>     1.3083     1.7528    14.7266 </r>
       <r>     1.3718     2.4156    14.8799 </r>
       <r>     1.4352     2.7667    15.0556 </r>
       <r>     1.4987     3.4330    15.2736 </r>
       <r>     1.5622     4.1598    15.5377 </r>
       <r>     1.6257     4.3179    15.8119 </r>
       <r>     1.6892     4.1200    16.0735 </r>
       <r>     1.7527     4.3888    16.3522 </r>
       <r>     1.8162     5.1238    16.6775 </r>
       <r>     1.8797     5.2936    17.0136 </r>
       <r>     1.9432     4.6111    17.3064 </r>
       <r>     2.0067     3.8171    17.5488 </r>
       <r>     2.0702     3.3636    17.7624 </r>
       <r>     2.1337     3.5581    17.9883 </r>
       <r>     2.1972     4.2409    18.2576 </r>
       <r>     2.2607     4.6392    18.5522 </r>
       <r>     2.3242     4.6447    18.8471 </r>
       <r>     2.3877     4.7173    19.1466 </r>
       <r>     2.4512     4.7438    19.4478 </r>
       <r>     2.5147     4.6406    19.7425 </r>
       <r>     2.5782     4.5357    20.0305 </r>
       <r>     2.6417     4.3466    20.3065 </r>
       <r>     2.7052     4.6014    20.5987 </r>
       <r>     2.7687     5.4438    20.9443 </r>
       <r>     2.8322     6.1829    21.3369 </r>
       <r>     2.8957     6.4740    21.7480 </r>
       <r>     2.9592     6.2806    22.1468 </r>
       <r>     3.0227     6.0979    22.5340 </r>
       <r>     3.0862     6.0580    22.9187 </r>
       <r>     3.1497     5.7918    23.2864 </r>
       <r>     3.2131     5.3776    23.6279 </r>
       <r>     3.2766     5.2934    23.9640 </r>
       <r>     3.3401     5.9579    24.3423 </r>
       <r>     3.4036     6.6543    24.7648 </r>
       <r>     3.4671     6.1645    25.1562 </r>
       <r>     3.5306     4.9602    25.4712 </r>
       <r>     3.5941     4.4576    25.7542 </r>
       <r>     3.6576     5.0594    26.0755 </r>
       <r>     3.7211     5.7367    26.4397 </r>
       <r>     3.7846     5.8601    26.8118 </r>
       <r>     3.8481     5.4567    27.1583 </r>
       <r>     3.9116     4.9134    27.4703 </r>
       <r>     3.9751     4.6816    27.7676 </r>
       <r>     4.0386     4.4756    28.0518 </r>
       <r>     4.1021     4.6300    28.3457 </r>
       <r>     4.1656     5.3950    28.6883 </r>
       <r>     4.2291     5.6042    29.0442 </r>
       <r>     4.2926     4.8022    29.3491 </r>
       <r>     4.3561     3.9103    29.5974 </r>
       <r>     4.4196     3.6171    29.8271 </r>
       <r>     4.4831     3.9765    30.0795 </r>
       <r>     4.5466     4.3080    30.3531 </r>
       <r>     4.6101     3.6725    30.5863 </r>
       <r>     4.6736     2.6299    30.7533 </r>
       <r>     4.7371     2.1443    30.8894 </r>
       <r>     4.8006     2.0929    31.0223 </r>
       <r>     4.8641     2.0383    31.1517 </r>
       <r>     4.9276     2.0824    31.2840 </r>
       <r>     4.9911     2.0566    31.4146 </r>
       <r>     5.0545     1.6287    31.5180 </r>
       <r>     5.1180     1.2855    31.5996 </r>
       <r>     5.1815     1.2293    31.6777 </r>
       <r>     5.2450     1.0925    31.7470 </r>
       <r>     5.3085     0.9600    31.8080 </r>
       <r>     5.3720     0.9457    31.8680 </r>
       <r>     5.4355     0.8412    31.9214 </r>
       <r>     5.4990     0.5929    31.9591 </r>
       <r>     5.5625     0.3464    31.9811 </r>
       <r>     5.6260     0.1872    31.9930 </r>
       <r>     5.6895     0.0840    31.9983 </r>
       <r>     5.7530     0.0231    31.9998 </r>
       <r>     5.8165     0.0033    32.0000 </r>
       <r>     5.8800     0.0002    32.0000 </r>
       <r>     5.9435     0.0000    32.0000 </r>
       <r>     6.0070     0.0002    32.0000 </r>
       <r>     6.0705     0.0029    32.0002 </r>
       <r>     6.1340     0.0208    32.0015 </r>
       <r>     6.1975     0.0760    32.0063 </r>
       <r>     6.2610     0.1555    32.0162 </r>
       <r>     6.3245     0.2662    32.0331 </r>
       <r>     6.3880     0.5748    32.0696 </r>
       <r>     6.4515     1.0517    32.1364 </r>
       <r>     6.5150     1.2696    32.2170 </r>
       <r>     6.5785     1.2438    32.2960 </r>
       <r>     6.6420     1.3623    32.3825 </r>
       <r>     6.7055     1.5951    32.4838 </r>
       <r>     6.7690     1.7103    32.5924 </r>
       <r>     6.8324     1.6227    32.6954 </r>
       <r>     6.8959     1.7214    32.8047 </r>
       <r>     6.9594     2.3877    32.9563 </r>
       <r>     7.0229     2.9063    33.1409 </r>
       <r>     7.0864     2.8129    33.3195 </r>
       <r>     7.1499     2.5152    33.4792 </r>
       <r>     7.2134     2.5371    33.6403 </r>
       <r>     7.2769     3.2421    33.8461 </r>
       <r>     7.3404     3.8835    34.0927 </r>
       <r>     7.4039     3.8116    34.3347 </r>
       <r>     7.4674     3.5779    34.5619 </r>
       <r>     7.5309     3.7952    34.8029 </r>
       <r>     7.5944     4.2823    35.0748 </r>
       <r>     7.6579     4.8203    35.3809 </r>
       <r>     7.7214     5.6355    35.7387 </r>
       <r>     7.7849     6.3611    36.1426 </r>
       <r>     7.8484     6.6587    36.5654 </r>
       <r>     7.9119     6.9211    37.0049 </r>
       <r>     7.9754     6.8462    37.4396 </r>
       <r>     8.0389     5.9191    37.8155 </r>
       <r>     8.1024     5.1925    38.1452 </r>
       <r>     8.1659     5.4969    38.4942 </r>
       <r>     8.2294     5.8327    38.8646 </r>
       <r>     8.2929     5.1320    39.1904 </r>
       <r>     8.3564     4.2234    39.4586 </r>
       <r>     8.4199     4.2716    39.7298 </r>
       <r>     8.4834     4.7200    40.0295 </r>
       <r>     8.5469     4.8918    40.3401 </r>
       <r>     8.6104     4.9245    40.6528 </r>
       <r>     8.6738     4.8300    40.9595 </r>
       <r>     8.7373     4.5230    41.2467 </r>
       <r>     8.8008     5.0641    41.5683 </r>
       <r>     8.8643     7.1741    42.0238 </r>
       <r>     8.9278     9.0326    42.5973 </r>
       <r>     8.9913     8.7030    43.1500 </r>
       <r>     9.0548     7.1620    43.6047 </r>
       <r>     9.1183     6.1576    43.9957 </r>
       <r>     9.1818     5.9983    44.3766 </r>
       <r>     9.2453     6.4037    44.7832 </r>
       <r>     9.3088     6.9030    45.2215 </r>
       <r>     9.3723     7.0079    45.6665 </r>
       <r>     9.4358     6.5328    46.0813 </r>
       <r>     9.4993     5.6700    46.4413 </r>
       <r>     9.5628     5.1040    46.7654 </r>
       <r>     9.6263     4.9776    47.0815 </r>
       <r>     9.6898     4.6639    47.3776 </r>
       <r>     9.7533     4.1107    47.6386 </r>
       <r>     9.8168     3.5865    47.8664 </r>
       <r>     9.8803     3.5010    48.0887 </r>
       <r>     9.9438     3.8110    48.3306 </r>
       <r>    10.0073     3.9882    48.5839 </r>
       <r>    10.0708     3.7527    48.8222 </r>
       <r>    10.1343     3.4385    49.0405 </r>
       <r>    10.1978     3.5743    49.2674 </r>
       <r>    10.2613     3.5855    49.4951 </r>
       <r>    10.3248     2.7162    49.6676 </r>
       <r>    10.3883     1.7007    49.7756 </r>
       <r>    10.4518     1.0951    49.8451 </r>
       <r>    10.5152     0.7687    49.8939 </r>
       <r>    10.5787     0.5636    49.9297 </r>
       <r>    10.6422     0.3886    49.9544 </r>
       <r>    10.7057     0.2559    49.9706 </r>
       <r>    10.7692     0.1813    49.9821 </r>
       <r>    10.8327     0.1438    49.9913 </r>
       <r>    10.8962     0.0915    49.9971 </r>
       <r>    10.9597     0.0367    49.9994 </r>
       <r>    11.0232     0.0082    49.9999 </r>
       <r>    11.0867     0.0010    50.0000 </r>
       <r>    11.1502     0.0001    50.0000 </r>
       <r>    11.2137     0.0000    50.0000 </r>
       <r>    11.2772     0.0000    50.0000 </r>
       <r>    11.3407     0.0000    50.0000 </r>
       <r>    11.4042     0.0000    50.0000 </r>
       <r>    11.4677     0.0000    50.0000 </r>
       <r>    11.5312     0.0000    50.0000 </r>
       <r>    11.5947     0.0000    50.0000 </r>
       <r>    11.6582     0.0000    50.0000 </r>
       <r>    11.7217     0.0000    50.0000 </r>
       <r>    11.7852     0.0000    50.0000 </r>
       <r>    11.8487     0.0000    50.0000 </r>
      </set>
     </set>
    </array>
   </total>
  </dos>
 </calculation>
 <structure name="finalpos" >
  <crystal>
   <varray name="basis" >
    <v>       5.46955305      -0.00000000       0.00000000 </v>
    <v>       0.00000000       5.46955305       0.00000000 </v>
    <v>      -0.00000000       0.00000000       5.46955305 </v>
   </varray>
   <i name="volume">    163.62720694 </i>
   <varray name="rec_basis" >
    <v>       0.18283030      -0.00000000       0.00000000 </v>
    <v>       0.00000000       0.18283030      -0.00000000 </v>
    <v>      -0.00000000      -0.00000000       0.18283030 </v>
   </varray>
  </crystal>
  <varray name="positions" >
   <v>      -0.00000000      -0.00000000      -0.00000000 </v>
   <v>      -0.00000000       0.50000000       0.50000000 </v>
   <v>       0.50000000       0.00000000       0.50000000 </v>
   <v>       0.50000000       0.50000000      -0.00000000 </v>
   <v>       0.25000000       0.25000000       0.25000000 </v>
   <v>       0.75000000       0.75000000       0.25000000 </v>
   <v>       0.75000000       0.25000000       0.75000000 </v>
   <v>       0.25000000       0.75000000       0.75000000 </v>
  </varray>
 </structure>
</modeling>
