    8    8    9    1
  0.2002393E+02  0.5431000E-09  0.5431000E-09  0.5431000E-09  0.1000000E-14
  1.000000000000000E-004
  CAR 
 diamond Si                              
     32     56     25
 
  0.0000000E+00  0.0000000E+00  0.0000000E+00  0.7513148E-03
    1       -6.200258   1.000000
    2       -2.133484   1.000000
    3       -2.133484   1.000000
    4       -2.133484   1.000000
    5       -2.133484   1.000000
    6       -2.133484   1.000000
    7       -2.133484   1.000000
    8        2.818437   1.000000
    9        2.818437   1.000000
   10        2.818437   1.000000
   11        2.818437   1.000000
   12        2.818437   1.000000
   13        2.818437   1.000000
   14        5.611193   0.999991
   15        5.611193   0.999991
   16        5.611193   0.999991
   17        6.364361   0.000000
   18        6.364361   0.000000
   19        6.364361   0.000000
   20        6.364361   0.000000
   21        6.364361   0.000000
   22        6.364361   0.000000
   23        8.168043   0.000000
   24        8.168043   0.000000
   25        8.168043   0.000000
 
  0.9090909E-01  0.0000000E+00  0.0000000E+00  0.4507889E-02
    1       -6.164756   1.000000
    2       -2.801416   1.000000
    3       -2.122204   1.000000
    4       -2.122204   1.000000
    5       -2.122204   1.000000
    6       -2.122204   1.000000
    7       -1.423199   1.000000
    8        2.717998   1.000000
    9        2.717998   1.000000
   10        2.717998   1.000000
   11        2.717998   1.000000
   12        2.850519   1.000000
   13        2.850519   1.000000
   14        5.369033   1.000000
   15        5.468266   1.000000
   16        5.468266   1.000000
   17        6.249061   0.000001
   18        6.555029   0.000000
   19        6.555029   0.000000
   20        6.555029   0.000000
   21        6.555029   0.000000
   22        6.575823   0.000000
   23        8.082021   0.000000
   24        8.354735   0.000000
   25        8.354736   0.000000
 
  0.1818182E+00  0.0000000E+00  0.0000000E+00  0.4507889E-02
    1       -6.058339   1.000000
    2       -3.420756   1.000000
    3       -2.091193   1.000000
    4       -2.091193   1.000000
    5       -2.091193   1.000000
    6       -2.091193   1.000000
    7       -0.677696   1.000000
    8        2.478383   1.000000
    9        2.478383   1.000000
   10        2.478383   1.000000
   11        2.478383   1.000000
   12        2.946477   1.000000
   13        2.946477   1.000000
   14        4.791853   1.000000
   15        5.129128   1.000000
   16        5.129128   1.000000
   17        6.224863   0.000006
   18        6.887548   0.000000
   19        7.067112   0.000000
   20        7.067112   0.000000
   21        7.067112   0.000000
   22        7.067112   0.000000
   23        7.853838   0.000000
   24        8.824525   0.000000
   25        8.824525   0.000000
 
  0.2727273E+00  0.0000000E+00  0.0000000E+00  0.4507889E-02
    1       -5.881554   1.000000
    2       -3.986260   1.000000
    3       -2.048795   1.000000
    4       -2.048795   1.000000
    5       -2.048795   1.000000
    6       -2.048795   1.000000
    7        0.095118   1.000000
    8        2.208683   1.000000
    9        2.208683   1.000000
   10        2.208683   1.000000
   11        2.208683   1.000000
   12        3.105375   1.000000
   13        3.105375   1.000000
   14        4.071118   1.000000
   15        4.721429   1.000000
   16        4.721429   1.000000
   17        6.285981   0.000000
   18        7.301716   0.000000
   19        7.546330   0.000000
   20        7.796043   0.000000
   21        7.796043   0.000000
   22        7.796043   0.000000
   23        7.796043   0.000000
   24        9.447865   0.000000
   25        9.447866   0.000000
 
  0.3636364E+00  0.0000000E+00  0.0000000E+00  0.4507889E-02
    1       -5.635213   1.000000
    2       -4.493618   1.000000
    3       -2.007863   1.000000
    4       -2.007863   1.000000
    5       -2.007863   1.000000
    6       -2.007863   1.000000
    7        0.887037   1.000000
    8        1.989320   1.000000
    9        1.989320   1.000000
   10        1.989320   1.000000
   11        1.989320   1.000000
   12        3.294265   1.000000
   13        3.325474   1.000000
   14        3.325474   1.000000
   15        4.313411   1.000000
   16        4.313411   1.000000
   17        6.425705   0.000000
   18        7.216812   0.000000
   19        7.816450   0.000000
   20        8.664729   0.000000
   21        8.664729   0.000000
   22        8.664729   0.000000
   23        8.664729   0.000000
   24        9.683668   0.000000
   25       10.153854   0.000000
 
  0.4545455E+00  0.0000000E+00  0.0000000E+00  0.4507889E-02
    1       -5.320587   1.000000
    2       -4.939317   1.000000
    3       -1.982543   1.000000
    4       -1.982543   1.000000
    5       -1.982543   1.000000
    6       -1.982543   1.000000
    7        1.689842   1.000000
    8        1.868072   1.000000
    9        1.868072   1.000000
   10        1.868072   1.000000
   11        1.868072   1.000000
   12        2.495414   1.000000
   13        3.603889   1.000000
   14        3.603889   1.000000
   15        3.935895   1.000000
   16        3.935895   1.000000
   17        6.635724   0.000000
   18        6.904860   0.000000
   19        8.420798   0.000000
   20        9.080530   0.000000
   21        9.592833   0.000000
   22        9.592833   0.000000
   23        9.592833   0.000000
   24        9.592833   0.000000
   25       10.848774   0.000000
 
  0.9090909E-01  0.9090909E-01  0.0000000E+00  0.9015778E-02
    1       -6.129318   1.000000
    2       -2.783093   1.000000
    3       -2.783093   1.000000
    4       -2.168249   1.000000
    5       -2.056305   1.000000
    6       -1.421913   1.000000
    7       -1.421913   1.000000
    8        2.420491   1.000000
    9        2.734949   1.000000
   10        2.734949   1.000000
   11        2.769470   1.000000
   12        2.769470   1.000000
   13        2.875164   1.000000
   14        4.976364   1.000000
   15        5.325105   1.000000
   16        5.578651   0.999999
   17        6.429682   0.000000
   18        6.448220   0.000000
   19        6.448220   0.000000
   20        6.756138   0.000000
   21        6.756138   0.000000
   22        7.003477   0.000000
   23        8.241204   0.000000
   24        8.300749   0.000000
   25        8.351793   0.000000
 
  0.1818182E+00  0.9090909E-01  0.0000000E+00  0.1803156E-01
    1       -6.023188   1.000000
    2       -3.397414   1.000000
    3       -2.730170   1.000000
    4       -2.202401   1.000000
    5       -1.967987   1.000000
    6       -1.421677   1.000000
    7       -0.690712   1.000000
    8        2.092157   1.000000
    9        2.458500   1.000000
   10        2.578501   1.000000
   11        2.819341   1.000000
   12        2.831598   1.000000
   13        2.889996   1.000000
   14        4.399473   1.000000
   15        4.984833   1.000000
   16        5.377543   1.000000
   17        6.430473   0.000000
   18        6.684008   0.000000
   19        6.976559   0.000000
   20        7.055922   0.000000
   21        7.247212   0.000000
   22        7.672485   0.000000
   23        8.045041   0.000000
   24        8.604689   0.000000
   25        8.750741   0.000000
 
  0.2727273E+00  0.9090909E-01  0.0000000E+00  0.1803156E-01
    1       -5.846885   1.000000
    2       -3.959307   1.000000
    3       -2.648893   1.000000
    4       -2.236891   1.000000
    5       -1.860401   1.000000
    6       -1.432325   1.000000
    7        0.061563   1.000000
    8        1.814663   1.000000
    9        2.139099   1.000000
   10        2.375042   1.000000
   11        2.649352   1.000000
   12        2.969706   1.000000
   13        3.079856   1.000000
   14        3.751710   1.000000
   15        4.575533   1.000000
   16        4.965890   1.000000
   17        6.495913   0.000000
   18        7.255416   0.000000
   19        7.456963   0.000000
   20        7.719236   0.000000
   21        7.745410   0.000000
   22        7.956669   0.000000
   23        8.488317   0.000000
   24        9.099126   0.000000
   25        9.382597   0.000000
 
  0.3636364E+00  0.9090909E-01  0.0000000E+00  0.1803156E-01
    1       -5.601274   1.000000
    2       -4.464034   1.000000
    3       -2.549794   1.000000
    4       -2.284958   1.000000
    5       -1.742411   1.000000
    6       -1.466254   1.000000
    7        0.824076   1.000000
    8        1.637284   1.000000
    9        1.858012   1.000000
   10        2.234209   1.000000
   11        2.435935   1.000000
   12        3.059369   1.000000
   13        3.183887   1.000000
   14        3.338860   1.000000
   15        4.166402   1.000000
   16        4.500151   1.000000
   17        6.637787   0.000000
   18        7.422224   0.000000
   19        7.957738   0.000000
   20        8.037683   0.000000
   21        8.598531   0.000000
   22        8.807784   0.000000
   23        9.400597   0.000000
   24        9.555567   0.000000
   25       10.099847   0.000000
 
  0.4545455E+00  0.9090909E-01  0.0000000E+00  0.1803156E-01
    1       -5.287668   1.000000
    2       -4.907810   1.000000
    3       -2.446970   1.000000
    4       -2.355263   1.000000
    5       -1.627727   1.000000
    6       -1.531888   1.000000
    7        1.585356   1.000000
    8        1.585406   1.000000
    9        1.663600   1.000000
   10        2.196200   1.000000
   11        2.269752   1.000000
   12        2.334028   1.000000
   13        3.458660   1.000000
   14        3.665778   1.000000
   15        3.788970   1.000000
   16        4.056650   1.000000
   17        6.847766   0.000000
   18        7.114664   0.000000
   19        8.546692   0.000000
   20        8.945642   0.000000
   21        9.179588   0.000000
   22        9.558429   0.000000
   23        9.610269   0.000000
   24       10.220399   0.000000
   25       10.238202   0.000000
 
  0.1818182E+00  0.1818182E+00  0.0000000E+00  0.9015778E-02
    1       -5.917918   1.000000
    2       -3.328830   1.000000
    3       -3.328830   1.000000
    4       -2.313386   1.000000
    5       -1.825114   1.000000
    6       -0.733402   1.000000
    7       -0.733402   1.000000
    8        1.755473   1.000000
    9        2.515571   1.000000
   10        2.515571   1.000000
   11        2.762026   1.000000
   12        2.762026   1.000000
   13        3.042838   1.000000
   14        3.823118   1.000000
   15        4.641317   1.000000
   16        5.469189   1.000000
   17        6.622965   0.000000
   18        6.970233   0.000000
   19        6.970233   0.000000
   20        7.521534   0.000000
   21        7.521534   0.000000
   22        8.428409   0.000000
   23        8.460433   0.000000
   24        8.496254   0.000000
   25        8.621362   0.000000
 
  0.2727273E+00  0.1818182E+00  0.0000000E+00  0.1803156E-01
    1       -5.743089   1.000000
    2       -3.879459   1.000000
    3       -3.219451   1.000000
    4       -2.436718   1.000000
    5       -1.660282   1.000000
    6       -0.813857   1.000000
    7       -0.039714   1.000000
    8        1.518702   1.000000
    9        2.159943   1.000000
   10        2.643014   1.000000
   11        2.646278   1.000000
   12        3.031151   1.000000
   13        3.053486   1.000000
   14        3.215964   1.000000
   15        4.228314   1.000000
   16        5.236594   1.000000
   17        6.936415   0.000000
   18        7.042271   0.000000
   19        7.721051   0.000000
   20        7.893262   0.000000
   21        8.205839   0.000000
   22        8.248613   0.000000
   23        8.724157   0.000000
   24        9.208045   0.000000
   25        9.291834   0.000000
 
  0.3636364E+00  0.1818182E+00  0.0000000E+00  0.1803156E-01
    1       -5.499730   1.000000
    2       -4.375996   1.000000
    3       -3.077131   1.000000
    4       -2.580300   1.000000
    5       -1.477032   1.000000
    6       -0.937281   1.000000
    7        0.646440   1.000000
    8        1.408624   1.000000
    9        1.832970   1.000000
   10        2.593552   1.000000
   11        2.596201   1.000000
   12        2.847047   1.000000
   13        2.924672   1.000000
   14        3.384950   1.000000
   15        3.816931   1.000000
   16        4.801454   1.000000
   17        7.185925   0.000000
   18        7.559695   0.000000
   19        7.945586   0.000000
   20        8.361413   0.000000
   21        8.604661   0.000000
   22        9.030798   0.000000
   23        9.163842   0.000000
   24        9.950648   0.000000
   25       10.217685   0.000000
 
  0.4545455E+00  0.1818182E+00  0.0000000E+00  0.1803156E-01
    1       -5.189283   1.000000
    2       -4.813804   1.000000
    3       -2.913364   1.000000
    4       -2.742727   1.000000
    5       -1.284937   1.000000
    6       -1.099091   1.000000
    7        1.315494   1.000000
    8        1.432248   1.000000
    9        1.580473   1.000000
   10        1.964370   1.000000
   11        2.636568   1.000000
   12        2.760673   1.000000
   13        3.113566   1.000000
   14        3.439924   1.000000
   15        3.815330   1.000000
   16        4.301401   1.000000
   17        7.392799   0.000000
   18        7.651545   0.000000
   19        8.384747   0.000000
   20        8.910716   0.000000
   21        9.294025   0.000000
   22        9.409273   0.000000
   23        9.573901   0.000000
   24       10.050652   0.000000
   25       10.120087   0.000000
 
  0.2727273E+00  0.2727273E+00  0.0000000E+00  0.9015778E-02
    1       -5.570881   1.000000
    2       -3.749833   1.000000
    3       -3.749833   1.000000
    4       -2.655537   1.000000
    5       -1.441026   1.000000
    6       -0.206284   1.000000
    7       -0.206284   1.000000
    8        1.348612   1.000000
    9        2.264944   1.000000
   10        2.264944   1.000000
   11        2.649969   1.000000
   12        3.012095   1.000000
   13        3.012095   1.000000
   14        3.313271   1.000000
   15        3.811856   1.000000
   16        5.258147   1.000000
   17        6.935052   0.000000
   18        7.795723   0.000000
   19        7.795723   0.000000
   20        8.547278   0.000000
   21        8.547278   0.000000
   22        8.595207   0.000000
   23        8.824939   0.000000
   24        9.062861   0.000000
   25       10.179129   0.000000
 
  0.3636364E+00  0.2727273E+00  0.0000000E+00  0.1803156E-01
    1       -5.331450   1.000000
    2       -4.231703   1.000000
    3       -3.576021   1.000000
    4       -2.891423   1.000000
    5       -1.200607   1.000000
    6       -0.426267   1.000000
    7        0.383348   1.000000
    8        1.312892   1.000000
    9        1.905090   1.000000
   10        2.082942   1.000000
   11        2.448175   1.000000
   12        3.055281   1.000000
   13        3.371781   1.000000
   14        3.399101   1.000000
   15        3.470793   1.000000
   16        4.985673   1.000000
   17        7.298871   0.000000
   18        7.936430   0.000000
   19        8.646144   0.000000
   20        8.677558   0.000000
   21        8.761186   0.000000
   22        8.980842   0.000000
   23        9.327625   0.000000
   24        9.742117   0.000000
   25        9.863297   0.000000
 
  0.4545455E+00  0.2727273E+00  0.0000000E+00  0.1803156E-01
    1       -5.026586   1.000000
    2       -4.658866   1.000000
    3       -3.366603   1.000000
    4       -3.133497   1.000000
    5       -0.943097   1.000000
    6       -0.679190   1.000000
    7        0.956196   1.000000
    8        1.405034   1.000000
    9        1.519842   1.000000
   10        1.609379   1.000000
   11        2.703568   1.000000
   12        3.023938   1.000000
   13        3.158563   1.000000
   14        3.287273   1.000000
   15        3.990980   1.000000
   16        4.522925   1.000000
   17        7.961697   0.000000
   18        8.134449   0.000000
   19        8.377589   0.000000
   20        8.813251   0.000000
   21        9.132613   0.000000
   22        9.446966   0.000000
   23        9.644418   0.000000
   24        9.729126   0.000000
   25       10.158736   0.000000
 
  0.3636364E+00  0.3636364E+00  0.0000000E+00  0.9015778E-02
    1       -5.097967   1.000000
    2       -4.035131   1.000000
    3       -4.035131   1.000000
    4       -3.207181   1.000000
    5       -0.905945   1.000000
    6        0.070326   1.000000
    7        0.070326   1.000000
    8        1.345239   1.000000
    9        1.565848   1.000000
   10        2.065492   1.000000
   11        2.065492   1.000000
   12        2.987400   1.000000
   13        3.588717   1.000000
   14        3.588717   1.000000
   15        3.670851   1.000000
   16        4.935811   1.000000
   17        7.346215   0.000000
   18        8.547954   0.000000
   19        8.810153   0.000000
   20        8.810153   0.000000
   21        9.279394   0.000000
   22        9.279405   0.000000
   23        9.333227   0.000000
   24        9.621916   0.000000
   25        9.775589   0.000000
 
  0.4545455E+00  0.3636364E+00  0.0000000E+00  0.1803156E-01
    1       -4.801650   1.000000
    2       -4.445809   1.000000
    3       -3.792411   1.000000
    4       -3.512418   1.000000
    5       -0.591393   1.000000
    6       -0.261790   1.000000
    7        0.561917   1.000000
    8        1.058438   1.000000
    9        1.492688   1.000000
   10        1.738952   1.000000
   11        2.305737   1.000000
   12        2.616867   1.000000
   13        3.707795   1.000000
   14        3.765366   1.000000
   15        4.140105   1.000000
   16        4.626164   1.000000
   17        7.743798   0.000000
   18        8.424671   0.000000
   19        8.597900   0.000000
   20        8.868722   0.000000
   21        8.992706   0.000000
   22        9.208807   0.000000
   23        9.764787   0.000000
   24       10.244045   0.000000
   25       10.378865   0.000000
 
  0.4545455E+00  0.4545455E+00  0.0000000E+00  0.9015778E-02
    1       -4.517598   1.000000
    2       -4.179023   1.000000
    3       -4.179023   1.000000
    4       -3.864914   1.000000
    5       -0.222866   1.000000
    6        0.163599   1.000000
    7        0.163599   1.000000
    8        0.603556   1.000000
    9        1.681685   1.000000
   10        1.957927   1.000000
   11        1.957927   1.000000
   12        2.254986   1.000000
   13        4.089385   1.000000
   14        4.200051   1.000000
   15        4.200051   1.000000
   16        4.528728   1.000000
   17        7.815887   0.000000
   18        8.214206   0.000000
   19        8.214206   0.000000
   20        8.261525   0.000000
   21        9.921440   0.000000
   22        9.921440   0.000000
   23        9.982758   0.000000
   24       10.305587   0.000000
   25       10.769295   0.000000
 
  0.9090909E-01  0.9090909E-01  0.9090909E-01  0.6010518E-02
    1       -6.093974   1.000000
    2       -2.767774   1.000000
    3       -2.767774   1.000000
    4       -2.767774   1.000000
    5       -1.420833   1.000000
    6       -1.420833   1.000000
    7       -1.420833   1.000000
    8        2.461073   1.000000
    9        2.461073   1.000000
   10        2.461073   1.000000
   11        2.906892   1.000000
   12        2.906892   1.000000
   13        2.906892   1.000000
   14        4.626298   1.000000
   15        5.447390   1.000000
   16        5.447390   1.000000
   17        6.442458   0.000000
   18        6.442458   0.000000
   19        6.442458   0.000000
   20        7.083988   0.000000
   21        7.083988   0.000000
   22        7.083988   0.000000
   23        8.157151   0.000000
   24        8.409534   0.000000
   25        8.409534   0.000000
 
  0.1818182E+00  0.9090909E-01  0.9090909E-01  0.1803156E-01
    1       -5.988147   1.000000
    2       -3.375534   1.000000
    3       -2.724947   1.000000
    4       -2.724947   1.000000
    5       -1.419829   1.000000
    6       -1.419829   1.000000
    7       -0.707099   1.000000
    8        2.140484   1.000000
    9        2.140484   1.000000
   10        2.583224   1.000000
   11        2.867716   1.000000
   12        2.867716   1.000000
   13        3.001746   1.000000
   14        4.063185   1.000000
   15        5.129353   1.000000
   16        5.318970   1.000000
   17        6.493342   0.000000
   18        6.713780   0.000000
   19        6.713780   0.000000
   20        7.312123   0.000000
   21        7.732346   0.000000
   22        7.732346   0.000000
   23        8.123718   0.000000
   24        8.427217   0.000000
   25        8.837765   0.000000
 
  0.2727273E+00  0.9090909E-01  0.9090909E-01  0.1803156E-01
    1       -5.812346   1.000000
    2       -3.933212   1.000000
    3       -2.664435   1.000000
    4       -2.664435   1.000000
    5       -1.423609   1.000000
    6       -1.423609   1.000000
    7        0.020999   1.000000
    8        1.866586   1.000000
    9        1.866586   1.000000
   10        2.700314   1.000000
   11        2.700314   1.000000
   12        2.788047   1.000000
   13        3.158672   1.000000
   14        3.452414   1.000000
   15        4.739345   1.000000
   16        4.912265   1.000000
   17        6.599526   0.000000
   18        7.288260   0.000000
   19        7.288260   0.000000
   20        7.667421   0.000000
   21        7.886553   0.000000
   22        8.539533   0.000000
   23        8.539533   0.000000
   24        8.849616   0.000000
   25        9.408312   0.000000
 
  0.3636364E+00  0.9090909E-01  0.9090909E-01  0.1803156E-01
    1       -5.567509   1.000000
    2       -4.434995   1.000000
    3       -2.603340   1.000000
    4       -2.603340   1.000000
    5       -1.433717   1.000000
    6       -1.433717   1.000000
    7        0.749230   1.000000
    8        1.679125   1.000000
    9        1.679125   1.000000
   10        2.516103   1.000000
   11        2.516103   1.000000
   12        2.816060   1.000000
   13        3.076831   1.000000
   14        3.375742   1.000000
   15        4.344057   1.000000
   16        4.402931   1.000000
   17        6.767006   0.000000
   18        7.576023   0.000000
   19        8.069901   0.000000
   20        8.069901   0.000000
   21        8.135454   0.000000
   22        9.399793   0.000000
   23        9.443904   0.000000
   24        9.443904   0.000000
   25       10.051205   0.000000
 
  0.4545455E+00  0.9090909E-01  0.9090909E-01  0.1803156E-01
    1       -5.254997   1.000000
    2       -4.876665   1.000000
    3       -2.563910   1.000000
    4       -2.563910   1.000000
    5       -1.443591   1.000000
    6       -1.443591   1.000000
    7        1.463755   1.000000
    8        1.588035   1.000000
    9        1.588035   1.000000
   10        2.153996   1.000000
   11        2.400664   1.000000
   12        2.400664   1.000000
   13        3.449173   1.000000
   14        3.649758   1.000000
   15        3.898388   1.000000
   16        3.975484   1.000000
   17        6.992957   0.000000
   18        7.268173   0.000000
   19        8.697582   0.000000
   20        8.974147   0.000000
   21        8.974147   0.000000
   22        9.290244   0.000000
   23        9.949984   0.000000
   24        9.949984   0.000000
   25       10.436918   0.000000
 
  0.1818182E+00  0.1818182E+00  0.9090909E-01  0.1803156E-01
    1       -5.883209   1.000000
    2       -3.311768   1.000000
    3       -3.311768   1.000000
    4       -2.715247   1.000000
    5       -1.412094   1.000000
    6       -0.758808   1.000000
    7       -0.758808   1.000000
    8        1.822940   1.000000
    9        2.285133   1.000000
   10        2.285133   1.000000
   11        2.976895   1.000000
   12        2.976895   1.000000
   13        3.073374   1.000000
   14        3.508466   1.000000
   15        4.880576   1.000000
   16        5.369183   1.000000
   17        6.662511   0.000000
   18        6.802651   0.000000
   19        6.802651   0.000000
   20        7.911650   0.000000
   21        7.911650   0.000000
   22        8.119055   0.000000
   23        8.477359   0.000000
   24        8.575200   0.000000
   25        8.858943   0.000000
 
  0.2727273E+00  0.1818182E+00  0.9090909E-01  0.3606311E-01
    1       -5.708969   1.000000
    2       -3.856145   1.000000
    3       -3.212072   1.000000
    4       -2.717953   1.000000
    5       -1.389822   1.000000
    6       -0.849447   1.000000
    7       -0.098688   1.000000
    8        1.605072   1.000000
    9        2.017277   1.000000
   10        2.523345   1.000000
   11        2.856738   1.000000
   12        2.925774   1.000000
   13        3.087478   1.000000
   14        3.162105   1.000000
   15        4.482104   1.000000
   16        5.150020   1.000000
   17        6.948998   0.000000
   18        6.976586   0.000000
   19        7.385307   0.000000
   20        8.167673   0.000000
   21        8.209057   0.000000
   22        8.631599   0.000000
   23        8.694086   0.000000
   24        9.295115   0.000000
   25        9.335744   0.000000
 
  0.3636364E+00  0.1818182E+00  0.9090909E-01  0.3606311E-01
    1       -5.466524   1.000000
    2       -4.348692   1.000000
    3       -3.087388   1.000000
    4       -2.754512   1.000000
    5       -1.337539   1.000000
    6       -0.974353   1.000000
    7        0.543830   1.000000
    8        1.507186   1.000000
    9        1.798614   1.000000
   10        2.341921   1.000000
   11        2.754378   1.000000
   12        2.844566   1.000000
   13        2.970420   1.000000
   14        3.429717   1.000000
   15        4.057345   1.000000
   16        4.718180   1.000000
   17        7.149226   0.000000
   18        7.597018   0.000000
   19        7.967230   0.000000
   20        8.165015   0.000000
   21        8.619585   0.000000
   22        9.046447   0.000000
   23        9.570207   0.000000
   24        9.900185   0.000000
   25       10.247290   0.000000
 
  0.4545455E+00  0.1818182E+00  0.9090909E-01  0.3606311E-01
    1       -5.157391   1.000000
    2       -4.783799   1.000000
    3       -2.954657   1.000000
    4       -2.836359   1.000000
    5       -1.243758   1.000000
    6       -1.114920   1.000000
    7        1.161225   1.000000
    8        1.523328   1.000000
    9        1.629576   1.000000
   10        1.756997   1.000000
   11        2.742260   1.000000
   12        2.828519   1.000000
   13        3.224901   1.000000
   14        3.634837   1.000000
   15        3.787985   1.000000
   16        4.232017   1.000000
   17        7.396503   0.000000
   18        7.678160   0.000000
   19        8.418488   0.000000
   20        9.051500   0.000000
   21        9.122011   0.000000
   22        9.396395   0.000000
   23        9.488262   0.000000
   24       10.054318   0.000000
   25       10.075331   0.000000
 
  0.2727273E+00  0.2727273E+00  0.9090909E-01  0.1803156E-01
    1       -5.537519   1.000000
    2       -3.731970   1.000000
    3       -3.731970   1.000000
    4       -2.822142   1.000000
    5       -1.313429   1.000000
    6       -0.286882   1.000000
    7       -0.286882   1.000000
    8        1.466657   1.000000
    9        2.251133   1.000000
   10        2.251133   1.000000
   11        2.371898   1.000000
   12        3.126300   1.000000
   13        3.126300   1.000000
   14        3.341408   1.000000
   15        4.082830   1.000000
   16        5.198221   1.000000
   17        6.976629   0.000000
   18        7.542021   0.000000
   19        7.542021   0.000000
   20        8.263334   0.000000
   21        8.857290   0.000000
   22        8.954074   0.000000
   23        8.954074   0.000000
   24        9.202600   0.000000
   25       10.218562   0.000000
 
  0.3636364E+00  0.2727273E+00  0.9090909E-01  0.3606311E-01
    1       -5.299258   1.000000
    2       -4.207729   1.000000
    3       -3.567834   1.000000
    4       -2.978619   1.000000
    5       -1.180984   1.000000
    6       -0.519623   1.000000
    7        0.253150   1.000000
    8        1.455816   1.000000
    9        1.826961   1.000000
   10        1.984322   1.000000
   11        2.546223   1.000000
   12        3.135549   1.000000
   13        3.402040   1.000000
   14        3.509326   1.000000
   15        3.664142   1.000000
   16        4.939156   1.000000
   17        7.337443   0.000000
   18        7.750327   0.000000
   19        8.317870   0.000000
   20        8.372945   0.000000
   21        8.853066   0.000000
   22        9.319702   0.000000
   23        9.675370   0.000000
   24        9.690604   0.000000
   25        9.990163   0.000000
 
  0.4545455E+00  0.2727273E+00  0.9090909E-01  0.3606311E-01
    1       -4.996143   1.000000
    2       -4.631000   1.000000
    3       -3.375216   1.000000
    4       -3.171210   1.000000
    5       -0.993464   1.000000
    6       -0.765182   1.000000
    7        0.776660   1.000000
    8        1.297119   1.000000
    9        1.556508   1.000000
   10        1.742788   1.000000
   11        2.885333   1.000000
   12        3.213080   1.000000
   13        3.260182   1.000000
   14        3.326124   1.000000
   15        3.981951   1.000000
   16        4.488745   1.000000
   17        7.995092   0.000000
   18        7.996415   0.000000
   19        8.248750   0.000000
   20        8.841260   0.000000
   21        9.127777   0.000000
   22        9.225286   0.000000
   23        9.608468   0.000000
   24        9.831266   0.000000
   25       10.207935   0.000000
 
  0.3636364E+00  0.3636364E+00  0.9090909E-01  0.1803156E-01
    1       -5.067389   1.000000
    2       -4.016900   1.000000
    3       -4.016900   1.000000
    4       -3.243997   1.000000
    5       -0.968275   1.000000
    6       -0.074684   1.000000
    7       -0.074684   1.000000
    8        1.320093   1.000000
    9        1.522191   1.000000
   10        2.228253   1.000000
   11        2.228253   1.000000
   12        3.257321   1.000000
   13        3.620335   1.000000