The current hostname is p0003.ten.osc.edu
The current working directory is /users/PAA0028/sjtuwjx1994
Switching to the working directory /users/PAA0028/sjtuwjx1994/repos/vasp_tutorials/lessons/lesson_02/encut_convergence/800
switching compiler chain
module load intel/19.0.5
module load intelmpi/2019.3
VASP_STD_BIN=/users/PAA0028/sjtuwjx1994/usr/local/vasp/vasp.5.4.1/bin/vasp_std
 running on   40 total cores
 distrk:  each k-point on   40 cores,    1 groups
 distr:  one band on    8 cores,    5 groups
 using from now: INCAR     
 vasp.5.4.1 05Feb16 (build Feb 24 2020 14:33:01) complex                        
  
 POSCAR found type information on POSCAR  Si
 POSCAR found :  1 types and       8 ions
 scaLAPACK will be used
 LDA part: xc-table for Pade appr. of Perdew
 POSCAR, INCAR and KPOINTS ok, starting setup
 FFT: planning ...
 WAVECAR not read
 entering main loop
       N       E                     dE             d eps       ncg     rms          rms(c)
DAV:   1     0.911672236742E+02    0.91167E+02   -0.16004E+04  2800   0.148E+03
DAV:   2    -0.377826066123E+02   -0.12895E+03   -0.12408E+03  3590   0.172E+02
DAV:   3    -0.440119098452E+02   -0.62293E+01   -0.61627E+01  3710   0.348E+01    0.106E+01
DAV:   4    -0.436078744018E+02    0.40404E+00   -0.97965E-01  3680   0.510E+00    0.575E+00
DAV:   5    -0.433720378319E+02    0.23584E+00   -0.44570E-01  3430   0.271E+00    0.583E-01
DAV:   6    -0.433779202437E+02   -0.58824E-02   -0.19857E-02  3700   0.657E-01    0.242E-01
DAV:   7    -0.433803884310E+02   -0.24682E-02   -0.50108E-03  3170   0.306E-01    0.931E-02
DAV:   8    -0.433803850504E+02    0.33805E-05   -0.14671E-04  2980   0.601E-02
   1 F= -.43380385E+02 E0= -.43380385E+02  d E =-.433804E+02
 curvature:   0.00 expect dE= 0.000E+00 dE for cont linesearch  0.000E+00
 trial: gam= 0.00000 g(F)=  0.947E-59 g(S)=  0.140E+00 ort = 0.000E+00 (trialstep = 0.100E+01)
 search vector abs. value=  0.140E+00
 bond charge predicted
       N       E                     dE             d eps       ncg     rms          rms(c)
DAV:   1    -0.433969031951E+02   -0.16515E-01   -0.33750E+00  3205   0.745E+00
DAV:   2    -0.434047137013E+02   -0.78105E-02   -0.78105E-02  3585   0.125E+00
DAV:   3    -0.434048007941E+02   -0.87093E-04   -0.87093E-04  3625   0.163E-01    0.220E+00
DAV:   4    -0.433306670728E+02    0.74134E-01   -0.35736E-02  2920   0.679E-01    0.110E+00
DAV:   5    -0.432938056045E+02    0.36861E-01   -0.54733E-02  3270   0.854E-01    0.319E-01
DAV:   6    -0.432936140424E+02    0.19156E-03   -0.28418E-03  3350   0.253E-01    0.118E-01
DAV:   7    -0.432935325296E+02    0.81513E-04   -0.30131E-04  3270   0.670E-02
   2 F= -.43293533E+02 E0= -.43293533E+02  d E =0.868525E-01
 trial-energy change:    0.086853  1 .order    0.080871   -0.139588    0.301329
 step:   0.2995(harm=  0.3166)  dis= 0.00000  next Energy=   -43.401128 (dE=-0.207E-01)
 bond charge predicted
       N       E                     dE             d eps       ncg     rms          rms(c)
DAV:   1    -0.434506674929E+02   -0.15705E+00   -0.17198E+00  3190   0.546E+00
DAV:   2    -0.434555329661E+02   -0.48655E-02   -0.48655E-02  3560   0.920E-01
DAV:   3    -0.434555692322E+02   -0.36266E-04   -0.36266E-04  3420   0.108E-01    0.158E+00
DAV:   4    -0.434186068718E+02    0.36962E-01   -0.17661E-02  2840   0.483E-01    0.772E-01
DAV:   5    -0.434004184282E+02    0.18188E-01   -0.26578E-02  3190   0.602E-01    0.249E-01
DAV:   6    -0.434004005072E+02    0.17921E-04   -0.14087E-03  3400   0.183E-01    0.100E-01
DAV:   7    -0.434003258709E+02    0.74636E-04   -0.12191E-04  2205   0.452E-02
   3 F= -.43400326E+02 E0= -.43400326E+02  d E =-.199408E-01
 curvature:  -0.16 expect dE=-0.472E-05 dE for cont linesearch -0.472E-05
 trial: gam= 0.00000 g(F)=  0.381E-59 g(S)=  0.298E-04 ort =-0.204E-02 (trialstep = 0.860E+00)
 search vector abs. value=  0.298E-04
 reached required accuracy - stopping structural energy minimisation
 writing wavefunctions

-----------------------
Resources requested:
nodes=1:ppn=40
mem=190440mb
-----------------------
Resources used:
cput=00:25:12
walltime=00:00:40
mem=3.604GB
vmem=156.430GB
-----------------------
Resource units charged (estimate):
0.044 RUs
-----------------------
