 vasp.5.4.1 05Feb16 (build Feb 24 2020 14:33:01) complex                        
  
 executed on           IFC91_ompi date 2020.02.27  23:43:14
 running on   40 total cores
 distrk:  each k-point on   40 cores,    1 groups
 distr:  one band on NCORES_PER_BAND=   8 cores,    5 groups


--------------------------------------------------------------------------------------------------------


 INCAR:
 POTCAR:    PAW_PBE Si 05Jan2001                  
 POTCAR:    PAW_PBE Si 05Jan2001                  
   VRHFIN =Si: s2p2                                                             
   LEXCH  = PE                                                                  
   EATOM  =   103.0669 eV,    7.5752 Ry                                         
                                                                                
   TITEL  = PAW_PBE Si 05Jan2001                                                
   LULTRA =        F    use ultrasoft PP ?                                      
   IUNSCR =        1    unscreen: 0-lin 1-nonlin 2-no                           
   RPACOR =    1.500    partial core radius                                     
   POMASS =   28.085; ZVAL   =    4.000    mass and valenz                      
   RCORE  =    1.900    outmost cutoff radius                                   
   RWIGS  =    2.480; RWIGS  =    1.312    wigner-seitz radius (au A)           
   ENMAX  =  245.345; ENMIN  =  184.009 eV                                      
   ICORE  =        2    local potential                                         
   LCOR   =        T    correct aug charges                                     
   LPAW   =        T    paw PP                                                  
   EAUG   =  322.069                                                            
   DEXC   =    0.000                                                            
   RMAX   =    1.950    core radius for proj-oper                               
   RAUG   =    1.300    factor for augmentation sphere                          
   RDEP   =    1.993    radius for radial grids                                 
   RDEPT  =    1.837    core radius for aug-charge                              
                                                                                
   Atomic configuration                                                         
    6 entries                                                                   
     n  l   j            E        occ.                                          
     1  0  0.50     -1785.8828   2.0000                                         
     2  0  0.50      -139.4969   2.0000                                         
     2  1  1.50       -95.5546   6.0000                                         
     3  0  0.50       -10.8127   2.0000                                         
     3  1  0.50        -4.0811   2.0000                                         
     3  2  1.50        -4.0817   0.0000                                         
   Description                                                                  
     l       E           TYP  RCUT    TYP  RCUT                                 
     0    -10.8127223     23  1.900                                             
     0     -7.6451159     23  1.900                                             
     1     -4.0811372     23  1.900                                             
     1      2.4879257     23  1.900                                             
     2     -4.0817478      7  1.900                                             
  local pseudopotential read in
  partial core-charges read in
  partial kinetic energy density read in
  atomic valenz-charges read in
  non local Contribution for L=           0  read in
    real space projection operators read in
  non local Contribution for L=           0  read in
    real space projection operators read in
  non local Contribution for L=           1  read in
    real space projection operators read in
  non local Contribution for L=           1  read in
    real space projection operators read in
    PAW grid and wavefunctions read in
 
   number of l-projection  operators is LMAX  =           4
   number of lm-projection operators is LMMAX =           8
 
  PAW_PBE Si 05Jan2001                  :
 energy of atom  1       EATOM= -103.0669
 kinetic energy error for atom=    0.0002 (will be added to EATOM!!)
 
 
 POSCAR: Si dia                                  
  positions in direct lattice
  No initial velocities read in
 exchange correlation table for  LEXCH =        8
   RHO(1)=    0.500       N(1)  =     2000
   RHO(2)=  100.500       N(2)  =     4000
 


--------------------------------------------------------------------------------------------------------


 ion  position               nearest neighbor table
   1  0.000  0.000  0.000-   5 2.35   6 2.35   7 2.35   8 2.35
   2  0.000  0.500  0.500-   5 2.35   6 2.35   7 2.35   8 2.35
   3  0.500  0.000  0.500-   5 2.35   6 2.35   7 2.35   8 2.35
   4  0.500  0.500  0.000-   5 2.35   6 2.35   7 2.35   8 2.35
   5  0.250  0.250  0.250-   1 2.35   2 2.35   3 2.35   4 2.35
   6  0.750  0.750  0.250-   1 2.35   2 2.35   3 2.35   4 2.35
   7  0.750  0.250  0.750-   1 2.35   2 2.35   3 2.35   4 2.35
   8  0.250  0.750  0.750-   1 2.35   2 2.35   3 2.35   4 2.35
 
  LATTYP: Found a simple cubic cell.
 ALAT       =     5.4310000000
  
  Lattice vectors:
  
 A1 = (   5.4310000000,   0.0000000000,   0.0000000000)
 A2 = (   0.0000000000,   5.4310000000,   0.0000000000)
 A3 = (   0.0000000000,   0.0000000000,   5.4310000000)


Analysis of symmetry for initial positions (statically):
=====================================================================
 Subroutine PRICEL returns following result:
 
  LATTYP: Found a face centered cubic cell.
 ALAT       =     5.4310000000
  
  Lattice vectors:
  
 A1 = (   2.7155000000,   2.7155000000,   0.0000000000)
 A2 = (   2.7155000000,   0.0000000000,  -2.7155000000)
 A3 = (   0.0000000000,   2.7155000000,  -2.7155000000)
 
   4 primitive cells build up your supercell.
 

 Routine SETGRP: Setting up the symmetry group for a 
 simple cubic supercell.


 Subroutine GETGRP returns: Found 48 space group operations
 (whereof 24 operations were pure point group operations)
 out of a pool of 48 trial point group operations.


The static configuration has the point symmetry T_d .
 The point group associated with its full space group is O_h .


Analysis of symmetry for dynamics (positions and initial velocities):
=====================================================================
 Subroutine PRICEL returns following result:
 
  LATTYP: Found a face centered cubic cell.
 ALAT       =     5.4310000000
  
  Lattice vectors:
  
 A1 = (   2.7155000000,   2.7155000000,   0.0000000000)
 A2 = (   2.7155000000,   0.0000000000,  -2.7155000000)
 A3 = (   0.0000000000,   2.7155000000,  -2.7155000000)
 
   4 primitive cells build up your supercell.
 

 Routine SETGRP: Setting up the symmetry group for a 
 simple cubic supercell.


 Subroutine GETGRP returns: Found 48 space group operations
 (whereof 24 operations were pure point group operations)
 out of a pool of 48 trial point group operations.


The dynamic configuration has the point symmetry T_d .
 The point group associated with its full space group is O_h .


 Subroutine INISYM returns: Found 48 space group operations
 (whereof 24 operations are pure point group operations),
 and found     4 'primitive' translations

 
 
 KPOINTS: k-points                                

Automatic generation of k-mesh.
Space group operators:
 irot       det(A)        alpha          n_x          n_y          n_z        tau_x        tau_y        tau_z
    1     1.000000     0.000001     1.000000     0.000000     0.000000     0.000000     0.000000     0.000000
    2     1.000000   120.000000    -0.577350    -0.577350    -0.577350     0.000000     0.000000     0.000000
    3     1.000000   120.000000     0.577350     0.577350     0.577350     0.000000     0.000000     0.000000
    4    -1.000000    90.000000     0.000000     0.000000    -1.000000     0.000000     0.000000     0.000000
    5    -1.000000   180.000000     0.000000     0.707107     0.707107     0.000000     0.000000     0.000000
    6    -1.000000    90.000000     0.000000     1.000000     0.000000     0.000000     0.000000     0.000000
    7     1.000000   180.000000     0.000000     0.000000     1.000000     0.000000     0.000000     0.000000
    8     1.000000   120.000000    -0.577350     0.577350     0.577350     0.000000     0.000000     0.000000
    9     1.000000   120.000000    -0.577350     0.577350    -0.577350     0.000000     0.000000     0.000000
   10    -1.000000    90.000000     0.000000     0.000000     1.000000     0.000000     0.000000     0.000000
   11    -1.000000    90.000000    -1.000000     0.000000     0.000000     0.000000     0.000000     0.000000
   12    -1.000000   180.000000     0.707107     0.000000     0.707107     0.000000     0.000000     0.000000
   13     1.000000   120.000000     0.577350    -0.577350     0.577350     0.000000     0.000000     0.000000
   14     1.000000   120.000000    -0.577350    -0.577350     0.577350     0.000000     0.000000     0.000000
   15     1.000000   180.000000     1.000000     0.000000     0.000000     0.000000     0.000000     0.000000
   16    -1.000000    90.000000     0.000000    -1.000000     0.000000     0.000000     0.000000     0.000000
   17    -1.000000   180.000000     0.707107     0.707107     0.000000     0.000000     0.000000     0.000000
   18    -1.000000    90.000000     1.000000     0.000000     0.000000     0.000000     0.000000     0.000000
   19     1.000000   120.000000     0.577350    -0.577350    -0.577350     0.000000     0.000000     0.000000
   20     1.000000   180.000000     0.000000     1.000000     0.000000     0.000000     0.000000     0.000000
   21     1.000000   120.000000     0.577350     0.577350    -0.577350     0.000000     0.000000     0.000000
   22    -1.000000   180.000000     0.000000    -0.707107     0.707107     0.000000     0.000000     0.000000
   23    -1.000000   180.000000     0.707107    -0.707107     0.000000     0.000000     0.000000     0.000000
   24    -1.000000   180.000000     0.707107     0.000000    -0.707107     0.000000     0.000000     0.000000
   25    -1.000000     0.000001     1.000000     0.000000     0.000000     0.750000     0.750000    -0.750000
   26    -1.000000   120.000000    -0.577350    -0.577350    -0.577350     0.750000     0.750000    -0.750000
   27    -1.000000   120.000000     0.577350     0.577350     0.577350     0.750000     0.750000    -0.750000
   28     1.000000    90.000000     0.000000     0.000000    -1.000000     0.750000     0.750000    -0.750000
   29     1.000000   180.000000     0.000000     0.707107     0.707107     0.750000     0.750000    -0.750000
   30     1.000000    90.000000     0.000000     1.000000     0.000000     0.750000     0.750000    -0.750000
   31    -1.000000   180.000000     0.000000     0.000000     1.000000     0.750000     0.750000    -0.750000
   32    -1.000000   120.000000    -0.577350     0.577350     0.577350     0.750000     0.750000    -0.750000
   33    -1.000000   120.000000    -0.577350     0.577350    -0.577350     0.750000     0.750000    -0.750000
   34     1.000000    90.000000     0.000000     0.000000     1.000000     0.750000     0.750000    -0.750000
   35     1.000000    90.000000    -1.000000     0.000000     0.000000     0.750000     0.750000    -0.750000
   36     1.000000   180.000000     0.707107     0.000000     0.707107     0.750000     0.750000    -0.750000
   37    -1.000000   120.000000     0.577350    -0.577350     0.577350     0.750000     0.750000    -0.750000
   38    -1.000000   120.000000    -0.577350    -0.577350     0.577350     0.750000     0.750000    -0.750000
   39    -1.000000   180.000000     1.000000     0.000000     0.000000     0.750000     0.750000    -0.750000
   40     1.000000    90.000000     0.000000    -1.000000     0.000000     0.750000     0.750000    -0.750000
   41     1.000000   180.000000     0.707107     0.707107     0.000000     0.750000     0.750000    -0.750000
   42     1.000000    90.000000     1.000000     0.000000     0.000000     0.750000     0.750000    -0.750000
   43    -1.000000   120.000000     0.577350    -0.577350    -0.577350     0.750000     0.750000    -0.750000
   44    -1.000000   180.000000     0.000000     1.000000     0.000000     0.750000     0.750000    -0.750000
   45    -1.000000   120.000000     0.577350     0.577350    -0.577350     0.750000     0.750000    -0.750000
   46     1.000000   180.000000     0.000000    -0.707107     0.707107     0.750000     0.750000    -0.750000
   47     1.000000   180.000000     0.707107    -0.707107     0.000000     0.750000     0.750000    -0.750000
   48     1.000000   180.000000     0.707107     0.000000    -0.707107     0.750000     0.750000    -0.750000
 
 Subroutine IBZKPT returns following result:
 ===========================================
 
 Found     56 irreducible k-points:
 
 Following reciprocal coordinates:
            Coordinates               Weight
  0.000000  0.000000  0.000000      1.000000
  0.090909  0.000000  0.000000      6.000000
  0.181818  0.000000  0.000000      6.000000
  0.272727  0.000000  0.000000      6.000000
  0.363636  0.000000  0.000000      6.000000
  0.454545  0.000000  0.000000      6.000000
  0.090909  0.090909  0.000000     12.000000
  0.181818  0.090909  0.000000     24.000000
  0.272727  0.090909  0.000000     24.000000
  0.363636  0.090909  0.000000     24.000000
  0.454545  0.090909  0.000000     24.000000
  0.181818  0.181818  0.000000     12.000000
  0.272727  0.181818  0.000000     24.000000
  0.363636  0.181818  0.000000     24.000000
  0.454545  0.181818  0.000000     24.000000
  0.272727  0.272727  0.000000     12.000000
  0.363636  0.272727  0.000000     24.000000
  0.454545  0.272727  0.000000     24.000000
  0.363636  0.363636  0.000000     12.000000
  0.454545  0.363636  0.000000     24.000000
  0.454545  0.454545  0.000000     12.000000
  0.090909  0.090909  0.090909      8.000000
  0.181818  0.090909  0.090909     24.000000
  0.272727  0.090909  0.090909     24.000000
  0.363636  0.090909  0.090909     24.000000
  0.454545  0.090909  0.090909     24.000000
  0.181818  0.181818  0.090909     24.000000
  0.272727  0.181818  0.090909     48.000000
  0.363636  0.181818  0.090909     48.000000
  0.454545  0.181818  0.090909     48.000000
  0.272727  0.272727  0.090909     24.000000
  0.363636  0.272727  0.090909     48.000000
  0.454545  0.272727  0.090909     48.000000
  0.363636  0.363636  0.090909     24.000000
  0.454545  0.363636  0.090909     48.000000
  0.454545  0.454545  0.090909     24.000000
  0.181818  0.181818  0.181818      8.000000
  0.272727  0.181818  0.181818     24.000000
  0.363636  0.181818  0.181818     24.000000
  0.454545  0.181818  0.181818     24.000000
  0.272727  0.272727  0.181818     24.000000
  0.363636  0.272727  0.181818     48.000000
  0.454545  0.272727  0.181818     48.000000
  0.363636  0.363636  0.181818     24.000000
  0.454545  0.363636  0.181818     48.000000
  0.454545  0.454545  0.181818     24.000000
  0.272727  0.272727  0.272727      8.000000
  0.363636  0.272727  0.272727     24.000000
  0.454545  0.272727  0.272727     24.000000
  0.363636  0.363636  0.272727     24.000000
  0.454545  0.363636  0.272727     48.000000
  0.454545  0.454545  0.272727     24.000000
  0.363636  0.363636  0.363636      8.000000
  0.454545  0.363636  0.363636     24.000000
  0.454545  0.454545  0.363636     24.000000
  0.454545  0.454545  0.454545      8.000000
 
 Following cartesian coordinates:
            Coordinates               Weight
  0.000000  0.000000  0.000000      1.000000
  0.090909  0.000000  0.000000      6.000000
  0.181818  0.000000  0.000000      6.000000
  0.272727  0.000000  0.000000      6.000000
  0.363636  0.000000  0.000000      6.000000
  0.454545  0.000000  0.000000      6.000000
  0.090909  0.090909  0.000000     12.000000
  0.181818  0.090909  0.000000     24.000000
  0.272727  0.090909  0.000000     24.000000
  0.363636  0.090909  0.000000     24.000000
  0.454545  0.090909  0.000000     24.000000
  0.181818  0.181818  0.000000     12.000000
  0.272727  0.181818  0.000000     24.000000
  0.363636  0.181818  0.000000     24.000000
  0.454545  0.181818  0.000000     24.000000
  0.272727  0.272727  0.000000     12.000000
  0.363636  0.272727  0.000000     24.000000
  0.454545  0.272727  0.000000     24.000000
  0.363636  0.363636  0.000000     12.000000
  0.454545  0.363636  0.000000     24.000000
  0.454545  0.454545  0.000000     12.000000
  0.090909  0.090909  0.090909      8.000000
  0.181818  0.090909  0.090909     24.000000
  0.272727  0.090909  0.090909     24.000000
  0.363636  0.090909  0.090909     24.000000
  0.454545  0.090909  0.090909     24.000000
  0.181818  0.181818  0.090909     24.000000
  0.272727  0.181818  0.090909     48.000000
  0.363636  0.181818  0.090909     48.000000
  0.454545  0.181818  0.090909     48.000000
  0.272727  0.272727  0.090909     24.000000
  0.363636  0.272727  0.090909     48.000000
  0.454545  0.272727  0.090909     48.000000
  0.363636  0.363636  0.090909     24.000000
  0.454545  0.363636  0.090909     48.000000
  0.454545  0.454545  0.090909     24.000000
  0.181818  0.181818  0.181818      8.000000
  0.272727  0.181818  0.181818     24.000000
  0.363636  0.181818  0.181818     24.000000
  0.454545  0.181818  0.181818     24.000000
  0.272727  0.272727  0.181818     24.000000
  0.363636  0.272727  0.181818     48.000000
  0.454545  0.272727  0.181818     48.000000
  0.363636  0.363636  0.181818     24.000000
  0.454545  0.363636  0.181818     48.000000
  0.454545  0.454545  0.181818     24.000000
  0.272727  0.272727  0.272727      8.000000
  0.363636  0.272727  0.272727     24.000000
  0.454545  0.272727  0.272727     24.000000
  0.363636  0.363636  0.272727     24.000000
  0.454545  0.363636  0.272727     48.000000
  0.454545  0.454545  0.272727     24.000000
  0.363636  0.363636  0.363636      8.000000
  0.454545  0.363636  0.363636     24.000000
  0.454545  0.454545  0.363636     24.000000
  0.454545  0.454545  0.454545      8.000000
 


--------------------------------------------------------------------------------------------------------




 Dimension of arrays:
   k-points           NKPTS =     56   k-points in BZ     NKDIM =     56   number of bands    NBANDS=     25
   number of dos      NEDOS =    301   number of ions     NIONS =      8
   non local maximal  LDIM  =      4   non local SUM 2l+1 LMDIM =      8
   total plane-waves  NPLWV = 125000
   max r-space proj   IRMAX =      1   max aug-charges    IRDMAX=  26286
   dimension x,y,z NGX =    50 NGY =   50 NGZ =   50
   dimension x,y,z NGXF=   100 NGYF=  100 NGZF=  100
   support grid    NGXF=   100 NGYF=  100 NGZF=  100
   ions per type =               8
 NGX,Y,Z   is equivalent  to a cutoff of  15.31, 15.31, 15.31 a.u.
 NGXF,Y,Z  is equivalent  to a cutoff of  30.61, 30.61, 30.61 a.u.


 I would recommend the setting:
   dimension x,y,z NGX =    50 NGY =   50 NGZ =   50
 SYSTEM =  diamond Si                              
 POSCAR =  Si dia                                  

 Startparameter for this run:
   NWRITE =      2    write-flag & timer
   PREC   = accura    normal or accurate (medium, high low for compatibility)
   ISTART =      0    job   : 0-new  1-cont  2-samecut
   ICHARG =      2    charge: 1-file 2-atom 10-const
   ISPIN  =      1    spin polarized calculation?
   LNONCOLLINEAR =      F non collinear calculations
   LSORBIT =      F    spin-orbit coupling
   INIWAV =      1    electr: 0-lowe 1-rand  2-diag
   LASPH  =      F    aspherical Exc in radial PAW
   METAGGA=      F    non-selfconsistent MetaGGA calc.

 Electronic Relaxation 1
   ENCUT  =  800.0 eV  58.80 Ry    7.67 a.u.  12.53 12.53 12.53*2*pi/ulx,y,z
   ENINI  =  800.0     initial cutoff
   ENAUG  =  322.1 eV  augmentation charge cutoff
   NELM   =     60;   NELMIN=  0; NELMDL=  3     # of ELM steps 
   EDIFF  = 0.1E-03   stopping-criterion for ELM
   LREAL  =      F    real-space projection
   NLSPLINE    = F    spline interpolate recip. space projectors
   LCOMPAT=      F    compatible to vasp.4.4
   GGA_COMPAT  = T    GGA compatible to vasp.4.4-vasp.4.6
   LMAXPAW     = -100 max onsite density
   LMAXMIX     =    2 max onsite mixed and CHGCAR
   VOSKOWN=      0    Vosko Wilk Nusair interpolation
   ROPT   =    0.00000
 Ionic relaxation
   EDIFFG = -.1E-01   stopping-criterion for IOM
   NSW    =      9    number of steps for IOM
   NBLOCK =      1;   KBLOCK =      9    inner block; outer block 
   IBRION =      2    ionic relax: 0-MD 1-quasi-New 2-CG
   NFREE  =      1    steps in history (QN), initial steepest desc. (CG)
   ISIF   =      3    stress and relaxation
   IWAVPR =     11    prediction:  0-non 1-charg 2-wave 3-comb
   ISYM   =      2    0-nonsym 1-usesym 2-fastsym
   LCORR  =      T    Harris-Foulkes like correction to forces

   POTIM  = 1.0000    time-step for ionic-motion
   TEIN   =    0.0    initial temperature
   TEBEG  =    0.0;   TEEND  =   0.0 temperature during run
   SMASS  =  -3.00    Nose mass-parameter (am)
   estimated Nose-frequenzy (Omega)   =  0.10E-29 period in steps =****** mass=  -0.674E-27a.u.
   SCALEE = 1.0000    scale energy and forces
   NPACO  =    256;   APACO  = 16.0  distance and # of slots for P.C.
   PSTRESS=    0.0 pullay stress

  Mass of Ions in am
   POMASS =  28.09
  Ionic Valenz
   ZVAL   =   4.00
  Atomic Wigner-Seitz radii
   RWIGS  =  -1.00
  virtual crystal weights 
   VCA    =   1.00
   NELECT =      32.0000    total number of electrons
   NUPDOWN=      -1.0000    fix difference up-down

 DOS related values:
   EMIN   =  10.00;   EMAX   =-10.00  energy-range for DOS
   EFERMI =   0.00
   ISMEAR =     0;   SIGMA  =   0.10  broadening in eV -4-tet -1-fermi 0-gaus

 Electronic relaxation 2 (details)
   IALGO  =     38    algorithm
   LDIAG  =      T    sub-space diagonalisation (order eigenvalues)
   LSUBROT=      F    optimize rotation matrix (better conditioning)
   TURBO    =      0    0=normal 1=particle mesh
   IRESTART =      0    0=no restart 2=restart with 2 vectors
   NREBOOT  =      0    no. of reboots
   NMIN     =      0    reboot dimension
   EREF     =   0.00    reference energy to select bands
   IMIX   =      4    mixing-type and parameters
     AMIX     =   0.40;   BMIX     =  1.00
     AMIX_MAG =   1.60;   BMIX_MAG =  1.00
     AMIN     =   0.10
     WC   =   100.;   INIMIX=   1;  MIXPRE=   1;  MAXMIX= -45

 Intra band minimization:
   WEIMIN = 0.0010     energy-eigenvalue tresh-hold
   EBREAK =  0.10E-05  absolut break condition
   DEPER  =   0.30     relativ break condition  

   TIME   =   0.40     timestep for ELM

  volume/ion in A,a.u.               =      20.02       135.13
  Fermi-wavevector in a.u.,A,eV,Ry     =   0.956999  1.808467 12.460868  0.915848
  Thomas-Fermi vector in A             =   2.085978
 
 Write flags
   LWAVE  =      T    write WAVECAR
   LCHARG =      T    write CHGCAR
   LVTOT  =      F    write LOCPOT, total local potential
   LVHAR  =      F    write LOCPOT, Hartree potential only
   LELF   =      F    write electronic localiz. function (ELF)
   LORBIT =      0    0 simple, 1 ext, 2 COOP (PROOUT)


 Dipole corrections
   LMONO  =      F    monopole corrections only (constant potential shift)
   LDIPOL =      F    correct potential (dipole corrections)
   IDIPOL =      0    1-x, 2-y, 3-z, 4-all directions 
   EPSILON=  1.0000000 bulk dielectric constant

 Exchange correlation treatment:
   GGA     =    --    GGA type
   LEXCH   =     8    internal setting for exchange type
   VOSKOWN=      0    Vosko Wilk Nusair interpolation
   LHFCALC =     F    Hartree Fock is set to
   LHFONE  =     F    Hartree Fock one center treatment
   AEXX    =    0.0000 exact exchange contribution

 Linear response parameters
   LEPSILON=     F    determine dielectric tensor
   LRPA    =     F    only Hartree local field effects (RPA)
   LNABLA  =     F    use nabla operator in PAW spheres
   LVEL    =     F    velocity operator in full k-point grid
   LINTERFAST=   F  fast interpolation
   KINTER  =     0    interpolate to denser k-point grid
   CSHIFT  =0.1000    complex shift for real part using Kramers Kronig
   OMEGAMAX=  -1.0    maximum frequency
   DEG_THRESHOLD= 0.2000000E-02 threshold for treating states as degnerate
   RTIME   =    0.100 relaxation time in fs

 Orbital magnetization related:
   ORBITALMAG=     F  switch on orbital magnetization
   LCHIMAG   =     F  perturbation theory with respect to B field
   DQ        =  0.001000  dq finite difference perturbation B field



--------------------------------------------------------------------------------------------------------


 conjugate gradient relaxation of ions
 charge density and potential will be updated during run
 non-spin polarized calculation
 Variant of blocked Davidson
 Davidson routine will perform the subspace rotation
 perform sub-space diagonalisation
    after iterative eigenvector-optimisation
 modified Broyden-mixing scheme, WC =      100.0
 initial mixing is a Kerker type mixing with AMIX =  0.4000 and BMIX =      1.0000
 Hartree-type preconditioning will be used
 using additional bands            9
 reciprocal scheme for non local part
 use partial core corrections
 calculate Harris-corrections to forces 
   (improved forces if not selfconsistent)
 use gradient corrections 
 use of overlap-Matrix (Vanderbilt PP)
 Gauss-broadening in eV      SIGMA  =   0.10


--------------------------------------------------------------------------------------------------------


  energy-cutoff  :      800.00
  volume of cell :      160.19
      direct lattice vectors                 reciprocal lattice vectors
     5.431000000  0.000000000  0.000000000     0.184128153  0.000000000  0.000000000
     0.000000000  5.431000000  0.000000000     0.000000000  0.184128153  0.000000000
     0.000000000  0.000000000  5.431000000     0.000000000  0.000000000  0.184128153

  length of vectors
     5.431000000  5.431000000  5.431000000     0.184128153  0.184128153  0.184128153


 
 k-points in units of 2pi/SCALE and weight: k-points                                
   0.00000000  0.00000000  0.00000000       0.001
   0.09090909  0.00000000  0.00000000       0.005
   0.18181818  0.00000000  0.00000000       0.005
   0.27272727  0.00000000  0.00000000       0.005
   0.36363636  0.00000000  0.00000000       0.005
   0.45454545  0.00000000  0.00000000       0.005
   0.09090909  0.09090909  0.00000000       0.009
   0.18181818  0.09090909  0.00000000       0.018
   0.27272727  0.09090909  0.00000000       0.018
   0.36363636  0.09090909  0.00000000       0.018
   0.45454545  0.09090909  0.00000000       0.018
   0.18181818  0.18181818  0.00000000       0.009
   0.27272727  0.18181818  0.00000000       0.018
   0.36363636  0.18181818  0.00000000       0.018
   0.45454545  0.18181818  0.00000000       0.018
   0.27272727  0.27272727  0.00000000       0.009
   0.36363636  0.27272727  0.00000000       0.018
   0.45454545  0.27272727  0.00000000       0.018
   0.36363636  0.36363636  0.00000000       0.009
   0.45454545  0.36363636  0.00000000       0.018
   0.45454545  0.45454545  0.00000000       0.009
   0.09090909  0.09090909  0.09090909       0.006
   0.18181818  0.09090909  0.09090909       0.018
   0.27272727  0.09090909  0.09090909       0.018
   0.36363636  0.09090909  0.09090909       0.018
   0.45454545  0.09090909  0.09090909       0.018
   0.18181818  0.18181818  0.09090909       0.018
   0.27272727  0.18181818  0.09090909       0.036
   0.36363636  0.18181818  0.09090909       0.036
   0.45454545  0.18181818  0.09090909       0.036
   0.27272727  0.27272727  0.09090909       0.018
   0.36363636  0.27272727  0.09090909       0.036
   0.45454545  0.27272727  0.09090909       0.036
   0.36363636  0.36363636  0.09090909       0.018
   0.45454545  0.36363636  0.09090909       0.036
   0.45454545  0.45454545  0.09090909       0.018
   0.18181818  0.18181818  0.18181818       0.006
   0.27272727  0.18181818  0.18181818       0.018
   0.36363636  0.18181818  0.18181818       0.018
   0.45454545  0.18181818  0.18181818       0.018
   0.27272727  0.27272727  0.18181818       0.018
   0.36363636  0.27272727  0.18181818       0.036
   0.45454545  0.27272727  0.18181818       0.036
   0.36363636  0.36363636  0.18181818       0.018
   0.45454545  0.36363636  0.18181818       0.036
   0.45454545  0.45454545  0.18181818       0.018
   0.27272727  0.27272727  0.27272727       0.006
   0.36363636  0.27272727  0.27272727       0.018
   0.45454545  0.27272727  0.27272727       0.018
   0.36363636  0.36363636  0.27272727       0.018
   0.45454545  0.36363636  0.27272727       0.036
   0.45454545  0.45454545  0.27272727       0.018
   0.36363636  0.36363636  0.36363636       0.006
   0.45454545  0.36363636  0.36363636       0.018
   0.45454545  0.45454545  0.36363636       0.018
   0.45454545  0.45454545  0.45454545       0.006
 
 k-points in reciprocal lattice and weights: k-points                                
   0.00000000  0.00000000  0.00000000       0.001
   0.09090909  0.00000000  0.00000000       0.005
   0.18181818  0.00000000  0.00000000       0.005
   0.27272727  0.00000000  0.00000000       0.005
   0.36363636  0.00000000  0.00000000       0.005
   0.45454545  0.00000000  0.00000000       0.005
   0.09090909  0.09090909  0.00000000       0.009
   0.18181818  0.09090909  0.00000000       0.018
   0.27272727  0.09090909  0.00000000       0.018
   0.36363636  0.09090909  0.00000000       0.018
   0.45454545  0.09090909  0.00000000       0.018
   0.18181818  0.18181818  0.00000000       0.009
   0.27272727  0.18181818  0.00000000       0.018
   0.36363636  0.18181818  0.00000000       0.018
   0.45454545  0.18181818  0.00000000       0.018
   0.27272727  0.27272727  0.00000000       0.009
   0.36363636  0.27272727  0.00000000       0.018
   0.45454545  0.27272727  0.00000000       0.018
   0.36363636  0.36363636  0.00000000       0.009
   0.45454545  0.36363636  0.00000000       0.018
   0.45454545  0.45454545  0.00000000       0.009
   0.09090909  0.09090909  0.09090909       0.006
   0.18181818  0.09090909  0.09090909       0.018
   0.27272727  0.09090909  0.09090909       0.018
   0.36363636  0.09090909  0.09090909       0.018
   0.45454545  0.09090909  0.09090909       0.018
   0.18181818  0.18181818  0.09090909       0.018
   0.27272727  0.18181818  0.09090909       0.036
   0.36363636  0.18181818  0.09090909       0.036
   0.45454545  0.18181818  0.09090909       0.036
   0.27272727  0.27272727  0.09090909       0.018
   0.36363636  0.27272727  0.09090909       0.036
   0.45454545  0.27272727  0.09090909       0.036
   0.36363636  0.36363636  0.09090909       0.018
   0.45454545  0.36363636  0.09090909       0.036
   0.45454545  0.45454545  0.09090909       0.018
   0.18181818  0.18181818  0.18181818       0.006
   0.27272727  0.18181818  0.18181818       0.018
   0.36363636  0.18181818  0.18181818       0.018
   0.45454545  0.18181818  0.18181818       0.018
   0.27272727  0.27272727  0.18181818       0.018
   0.36363636  0.27272727  0.18181818       0.036
   0.45454545  0.27272727  0.18181818       0.036
   0.36363636  0.36363636  0.18181818       0.018
   0.45454545  0.36363636  0.18181818       0.036
   0.45454545  0.45454545  0.18181818       0.018
   0.27272727  0.27272727  0.27272727       0.006
   0.36363636  0.27272727  0.27272727       0.018
   0.45454545  0.27272727  0.27272727       0.018
   0.36363636  0.36363636  0.27272727       0.018
   0.45454545  0.36363636  0.27272727       0.036
   0.45454545  0.45454545  0.27272727       0.018
   0.36363636  0.36363636  0.36363636       0.006
   0.45454545  0.36363636  0.36363636       0.018
   0.45454545  0.45454545  0.36363636       0.018
   0.45454545  0.45454545  0.45454545       0.006
 
 position of ions in fractional coordinates (direct lattice) 
   0.00000000  0.00000000  0.00000000
   0.00000000  0.50000000  0.50000000
   0.50000000  0.00000000  0.50000000
   0.50000000  0.50000000  0.00000000
   0.25000000  0.25000000  0.25000000
   0.75000000  0.75000000  0.25000000
   0.75000000  0.25000000  0.75000000
   0.25000000  0.75000000  0.75000000
 
 position of ions in cartesian coordinates  (Angst):
   0.00000000  0.00000000  0.00000000
   0.00000000  2.71550000  2.71550000
   2.71550000  0.00000000  2.71550000
   2.71550000  2.71550000  0.00000000
   1.35775000  1.35775000  1.35775000
   4.07325000  4.07325000  1.35775000
   4.07325000  1.35775000  4.07325000
   1.35775000  4.07325000  4.07325000
 


--------------------------------------------------------------------------------------------------------


 k-point  1 :   0.0000 0.0000 0.0000  plane waves:    8217
 k-point  2 :   0.0909 0.0000 0.0000  plane waves:    8265
 k-point  3 :   0.1818 0.0000 0.0000  plane waves:    8237
 k-point  4 :   0.2727 0.0000 0.0000  plane waves:    8233
 k-point  5 :   0.3636 0.0000 0.0000  plane waves:    8233
 k-point  6 :   0.4545 0.0000 0.0000  plane waves:    8221
 k-point  7 :   0.0909 0.0909 0.0000  plane waves:    8261
 k-point  8 :   0.1818 0.0909 0.0000  plane waves:    8251
 k-point  9 :   0.2727 0.0909 0.0000  plane waves:    8244
 k-point 10 :   0.3636 0.0909 0.0000  plane waves:    8238
 k-point 11 :   0.4545 0.0909 0.0000  plane waves:    8222
 k-point 12 :   0.1818 0.1818 0.0000  plane waves:    8256
 k-point 13 :   0.2727 0.1818 0.0000  plane waves:    8251
 k-point 14 :   0.3636 0.1818 0.0000  plane waves:    8231
 k-point 15 :   0.4545 0.1818 0.0000  plane waves:    8230
 k-point 16 :   0.2727 0.2727 0.0000  plane waves:    8256
 k-point 17 :   0.3636 0.2727 0.0000  plane waves:    8242
 k-point 18 :   0.4545 0.2727 0.0000  plane waves:    8228
 k-point 19 :   0.3636 0.3636 0.0000  plane waves:    8222
 k-point 20 :   0.4545 0.3636 0.0000  plane waves:    8224
 k-point 21 :   0.4545 0.4545 0.0000  plane waves:    8234
 k-point 22 :   0.0909 0.0909 0.0909  plane waves:    8241
 k-point 23 :   0.1818 0.0909 0.0909  plane waves:    8247
 k-point 24 :   0.2727 0.0909 0.0909  plane waves:    8239
 k-point 25 :   0.3636 0.0909 0.0909  plane waves:    8243
 k-point 26 :   0.4545 0.0909 0.0909  plane waves:    8231
 k-point 27 :   0.1818 0.1818 0.0909  plane waves:    8241
 k-point 28 :   0.2727 0.1818 0.0909  plane waves:    8233
 k-point 29 :   0.3636 0.1818 0.0909  plane waves:    8245
 k-point 30 :   0.4545 0.1818 0.0909  plane waves:    8229
 k-point 31 :   0.2727 0.2727 0.0909  plane waves:    8247
 k-point 32 :   0.3636 0.2727 0.0909  plane waves:    8233
 k-point 33 :   0.4545 0.2727 0.0909  plane waves:    8217
 k-point 34 :   0.3636 0.3636 0.0909  plane waves:    8220
 k-point 35 :   0.4545 0.3636 0.0909  plane waves:    8221
 k-point 36 :   0.4545 0.4545 0.0909  plane waves:    8236
 k-point 37 :   0.1818 0.1818 0.1818  plane waves:    8244
 k-point 38 :   0.2727 0.1818 0.1818  plane waves:    8250
 k-point 39 :   0.3636 0.1818 0.1818  plane waves:    8239
 k-point 40 :   0.4545 0.1818 0.1818  plane waves:    8225
 k-point 41 :   0.2727 0.2727 0.1818  plane waves:    8235
 k-point 42 :   0.3636 0.2727 0.1818  plane waves:    8237
 k-point 43 :   0.4545 0.2727 0.1818  plane waves:    8226
 k-point 44 :   0.3636 0.3636 0.1818  plane waves:    8216
 k-point 45 :   0.4545 0.3636 0.1818  plane waves:    8223
 k-point 46 :   0.4545 0.4545 0.1818  plane waves:    8218
 k-point 47 :   0.2727 0.2727 0.2727  plane waves:    8255
 k-point 48 :   0.3636 0.2727 0.2727  plane waves:    8228
 k-point 49 :   0.4545 0.2727 0.2727  plane waves:    8213
 k-point 50 :   0.3636 0.3636 0.2727  plane waves:    8215
 k-point 51 :   0.4545 0.3636 0.2727  plane waves:    8219
 k-point 52 :   0.4545 0.4545 0.2727  plane waves:    8206
 k-point 53 :   0.3636 0.3636 0.3636  plane waves:    8201
 k-point 54 :   0.4545 0.3636 0.3636  plane waves:    8222
 k-point 55 :   0.4545 0.4545 0.3636  plane waves:    8223
 k-point 56 :   0.4545 0.4545 0.4545  plane waves:    8198

 maximum and minimum number of plane-waves per node :      1057     1005

 maximum number of plane-waves:      8265
 maximum index in each direction: 
   IXMAX=   12   IYMAX=   12   IZMAX=   12
   IXMIN=  -12   IYMIN=  -12   IZMIN=  -12

 NGX is ok and might be reduce to  50
 NGY is ok and might be reduce to  50
 NGZ is ok and might be reduce to  50

 total amount of memory used by VASP on root node    41707. kBytes
========================================================================

   base      :      30000. kBytes
   nonl-proj :       3841. kBytes
   fftplans  :       1332. kBytes
   grid      :       1850. kBytes
   one-center:          3. kBytes
   wavefun   :       4681. kBytes
 
     INWAV:  cpu time    0.0000: real time    0.0000
 Broyden mixing: mesh for mixing (old mesh)
   NGX = 25   NGY = 25   NGZ = 25
  (NGX  =100   NGY  =100   NGZ  =100)
  gives a total of  15625 points

 initial charge density was supplied:
 charge density of overlapping atoms calculated
 number of electron      32.0000000 magnetization 
 keeping initial charge density in first step


--------------------------------------------------------------------------------------------------------


 Maximum index for augmentation-charges          725 (set IRDMAX)


--------------------------------------------------------------------------------------------------------


 First call to EWALD:  gamma=   0.326
 Maximum number of real-space cells 3x 3x 3
 Maximum number of reciprocal cells 3x 3x 3

 FEWALD executed in parallel
    FEWALD:  cpu time    0.0013: real time    0.0013


----------------------------------------- Iteration    1(   1)  ---------------------------------------


    POTLOK:  cpu time    0.0184: real time    0.0185
    SETDIJ:  cpu time    0.0020: real time    0.0021
     EDDAV:  cpu time    1.3494: real time    1.3557
       DOS:  cpu time    0.0014: real time    0.0014
    --------------------------------------------
      LOOP:  cpu time    1.3726: real time    1.3802

 eigenvalue-minimisations  :  2800
 total energy-change (2. order) : 0.9116722E+02  (-0.1600416E+04)
 number of electron      32.0000000 magnetization 
 augmentation part       32.0000000 magnetization 

 Free energy of the ion-electron system (eV)
  ---------------------------------------------------
  alpha Z        PSCENC =        13.44915721
  Ewald energy   TEWEN  =      -914.08579262
  -Hartree energ DENC   =       -44.03749844
  -exchange      EXHF   =         0.00000000
  -V(xc)+E(xc)   XCENC  =       -74.41615879
  PAW double counting   =       704.99039692     -564.24414232
  entropy T*S    EENTRO =        -0.01652762
  eigenvalues    EBANDS =       144.99409824
  atomic energy  EATOM  =       824.53369109
  Solvation  Ediel_sol  =         0.00000000
  ---------------------------------------------------
  free energy    TOTEN  =        91.16722367 eV

  energy without entropy =       91.18375129  energy(sigma->0) =       91.17548748


--------------------------------------------------------------------------------------------------------




----------------------------------------- Iteration    1(   2)  ---------------------------------------


     EDDAV:  cpu time    1.5323: real time    1.5568
       DOS:  cpu time    0.0011: real time    0.0210
    --------------------------------------------
      LOOP:  cpu time    1.5339: real time    1.5851

 eigenvalue-minimisations  :  3590
 total energy-change (2. order) :-0.1289498E+03  (-0.1240829E+03)
 number of electron      32.0000000 magnetization 
 augmentation part       32.0000000 magnetization 

 Free energy of the ion-electron system (eV)
  ---------------------------------------------------
  alpha Z        PSCENC =        13.44915721
  Ewald energy   TEWEN  =      -914.08579262
  -Hartree energ DENC   =       -44.03749844
  -exchange      EXHF   =         0.00000000
  -V(xc)+E(xc)   XCENC  =       -74.41615879
  PAW double counting   =       704.99039692     -564.24414232
  entropy T*S    EENTRO =        -0.00002588
  eigenvalues    EBANDS =        16.02776621
  atomic energy  EATOM  =       824.53369109
  Solvation  Ediel_sol  =         0.00000000
  ---------------------------------------------------
  free energy    TOTEN  =       -37.78260661 eV

  energy without entropy =      -37.78258074  energy(sigma->0) =      -37.78259367


--------------------------------------------------------------------------------------------------------




----------------------------------------- Iteration    1(   3)  ---------------------------------------


     EDDAV:  cpu time    1.4347: real time    1.4990
       DOS:  cpu time    0.0008: real time    0.0008
    CHARGE:  cpu time    0.1553: real time    0.1567
    MIXING:  cpu time    0.0028: real time    0.0030
    --------------------------------------------
      LOOP:  cpu time    1.5942: real time    1.6638

 eigenvalue-minimisations  :  3710
 total energy-change (2. order) :-0.6229303E+01  (-0.6162698E+01)
 number of electron      31.9999999 magnetization 
 augmentation part       -1.8735949 magnetization 

 Broyden mixing:
  rms(total) = 0.10571E+01    rms(broyden)= 0.10571E+01
  rms(prec ) = 0.14084E+01
  weight for this iteration     100.00

 Free energy of the ion-electron system (eV)
  ---------------------------------------------------
  alpha Z        PSCENC =        13.44915721
  Ewald energy   TEWEN  =      -914.08579262
  -Hartree energ DENC   =       -44.03749844
  -exchange      EXHF   =         0.00000000
  -V(xc)+E(xc)   XCENC  =       -74.41615879
  PAW double counting   =       704.99039692     -564.24414232
  entropy T*S    EENTRO =        -0.00000000
  eigenvalues    EBANDS =         9.79843710
  atomic energy  EATOM  =       824.53369109
  Solvation  Ediel_sol  =         0.00000000
  ---------------------------------------------------
  free energy    TOTEN  =       -44.01190985 eV

  energy without entropy =      -44.01190985  energy(sigma->0) =      -44.01190985


--------------------------------------------------------------------------------------------------------




----------------------------------------- Iteration    1(   4)  ---------------------------------------


    POTLOK:  cpu time    0.0228: real time    0.0239
    SETDIJ:  cpu time    0.0028: real time    0.0028
     EDDAV:  cpu time    1.5634: real time    1.5951
       DOS:  cpu time    0.0008: real time    0.0008
    CHARGE:  cpu time    0.0892: real time    0.0894
    MIXING:  cpu time    0.0012: real time    0.0013
    --------------------------------------------
      LOOP:  cpu time    1.6807: real time    1.7176

 eigenvalue-minimisations  :  3680
 total energy-change (2. order) : 0.4040354E+00  (-0.9796509E-01)
 number of electron      31.9999999 magnetization 
 augmentation part       -1.8593648 magnetization 

 Broyden mixing:
  rms(total) = 0.57488E+00    rms(broyden)= 0.57488E+00
  rms(prec ) = 0.80330E+00
  weight for this iteration     100.00

 eigenvalues of (default mixing * dielectric matrix)
  average eigenvalue GAMMA=   2.1363
  2.1363

 Free energy of the ion-electron system (eV)
  ---------------------------------------------------
  alpha Z        PSCENC =        13.44915721
  Ewald energy   TEWEN  =      -914.08579262
  -Hartree energ DENC   =       -49.88891514
  -exchange      EXHF   =         0.00000000
  -V(xc)+E(xc)   XCENC  =       -73.47656865
  PAW double counting   =      1636.47425332    -1496.16351646
  entropy T*S    EENTRO =        -0.00000000
  eigenvalues    EBANDS =        15.54981685
  atomic energy  EATOM  =       824.53369109
  Solvation  Ediel_sol  =         0.00000000
  ---------------------------------------------------
  free energy    TOTEN  =       -43.60787440 eV

  energy without entropy =      -43.60787440  energy(sigma->0) =      -43.60787440


--------------------------------------------------------------------------------------------------------




----------------------------------------- Iteration    1(   5)  ---------------------------------------


    POTLOK:  cpu time    0.0140: real time    0.0140
    SETDIJ:  cpu time    0.0027: real time    0.0035
     EDDAV:  cpu time    1.4672: real time    1.4818
       DOS:  cpu time    0.0010: real time    0.0010
    CHARGE:  cpu time    0.0942: real time    0.0947
    MIXING:  cpu time    0.0053: real time    0.0054
    --------------------------------------------
      LOOP:  cpu time    1.5848: real time    1.6034

 eigenvalue-minimisations  :  3430
 total energy-change (2. order) : 0.2358366E+00  (-0.4456983E-01)
 number of electron      31.9999999 magnetization 
 augmentation part       -1.8334165 magnetization 

 Broyden mixing:
  rms(total) = 0.58350E-01    rms(broyden)= 0.58350E-01
  rms(prec ) = 0.79411E-01
  weight for this iteration     100.00

 eigenvalues of (default mixing * dielectric matrix)
  average eigenvalue GAMMA=   1.7450
  1.0014  2.4887

 Free energy of the ion-electron system (eV)
  ---------------------------------------------------
  alpha Z        PSCENC =        13.44915721
  Ewald energy   TEWEN  =      -914.08579262
  -Hartree energ DENC   =       -59.02124611
  -exchange      EXHF   =         0.00000000
  -V(xc)+E(xc)   XCENC  =       -72.01778998
  PAW double counting   =      3362.34309739    -3222.56876771
  entropy T*S    EENTRO =        -0.00000020
  eigenvalues    EBANDS =        23.99561311
  atomic energy  EATOM  =       824.53369109
  Solvation  Ediel_sol  =         0.00000000
  ---------------------------------------------------
  free energy    TOTEN  =       -43.37203783 eV

  energy without entropy =      -43.37203763  energy(sigma->0) =      -43.37203773


--------------------------------------------------------------------------------------------------------




----------------------------------------- Iteration    1(   6)  ---------------------------------------


    POTLOK:  cpu time    0.0137: real time    0.0139
    SETDIJ:  cpu time    0.0018: real time    0.0018
     EDDAV:  cpu time    1.3673: real time    1.3766
       DOS:  cpu time    0.0010: real time    0.0010
    CHARGE:  cpu time    0.0892: real time    0.0894
    MIXING:  cpu time    0.0010: real time    0.0010
    --------------------------------------------
      LOOP:  cpu time    1.4744: real time    1.4867

 eigenvalue-minimisations  :  3700
 total energy-change (2. order) :-0.5882412E-02  (-0.1985688E-02)
 number of electron      31.9999999 magnetization 
 augmentation part       -1.8331535 magnetization 

 Broyden mixing:
  rms(total) = 0.24181E-01    rms(broyden)= 0.24181E-01
  rms(prec ) = 0.35857E-01
  weight for this iteration     100.00

 eigenvalues of (default mixing * dielectric matrix)
  average eigenvalue GAMMA=   2.0407
  0.9097  2.7069  2.5054

 Free energy of the ion-electron system (eV)
  ---------------------------------------------------
  alpha Z        PSCENC =        13.44915721
  Ewald energy   TEWEN  =      -914.08579262
  -Hartree energ DENC   =       -59.66254440
  -exchange      EXHF   =         0.00000000
  -V(xc)+E(xc)   XCENC  =       -71.89403543
  PAW double counting   =      3533.30480191    -3393.51982915
  entropy T*S    EENTRO =        -0.00000021
  eigenvalues    EBANDS =        24.49663136
  atomic energy  EATOM  =       824.53369109
  Solvation  Ediel_sol  =         0.00000000
  ---------------------------------------------------
  free energy    TOTEN  =       -43.37792024 eV

  energy without entropy =      -43.37792003  energy(sigma->0) =      -43.37792014


--------------------------------------------------------------------------------------------------------




----------------------------------------- Iteration    1(   7)  ---------------------------------------


    POTLOK:  cpu time    0.0138: real time    0.0138
    SETDIJ:  cpu time    0.0018: real time    0.0018
     EDDAV:  cpu time    1.2242: real time    1.2277
       DOS:  cpu time    0.0010: real time    0.0010
    CHARGE:  cpu time    0.0900: real time    0.0903
    MIXING:  cpu time    0.0010: real time    0.0010
    --------------------------------------------
      LOOP:  cpu time    1.3322: real time    1.3393

 eigenvalue-minimisations  :  3170
 total energy-change (2. order) :-0.2468187E-02  (-0.5010814E-03)
 number of electron      31.9999999 magnetization 
 augmentation part       -1.8357783 magnetization 

 Broyden mixing:
  rms(total) = 0.93079E-02    rms(broyden)= 0.93079E-02
  rms(prec ) = 0.11734E-01
  weight for this iteration     100.00

 eigenvalues of (default mixing * dielectric matrix)
  average eigenvalue GAMMA=   1.7450
  2.6262  2.3855  0.9841  0.9841

 Free energy of the ion-electron system (eV)
  ---------------------------------------------------
  alpha Z        PSCENC =        13.44915721
  Ewald energy   TEWEN  =      -914.08579262
  -Hartree energ DENC   =       -59.52400135
  -exchange      EXHF   =         0.00000000
  -V(xc)+E(xc)   XCENC  =       -71.88477574
  PAW double counting   =      3504.57199501    -3364.70614324
  entropy T*S    EENTRO =        -0.00000012
  eigenvalues    EBANDS =        24.26548133
  atomic energy  EATOM  =       824.53369109
  Solvation  Ediel_sol  =         0.00000000
  ---------------------------------------------------
  free energy    TOTEN  =       -43.38038843 eV

  energy without entropy =      -43.38038831  energy(sigma->0) =      -43.38038837


--------------------------------------------------------------------------------------------------------




----------------------------------------- Iteration    1(   8)  ---------------------------------------


    POTLOK:  cpu time    0.0138: real time    0.0138
    SETDIJ:  cpu time    0.0017: real time    0.0017
     EDDAV:  cpu time    1.2287: real time    1.2322
       DOS:  cpu time    0.0010: real time    0.0010
    --------------------------------------------
      LOOP:  cpu time    1.2456: real time    1.2527

 eigenvalue-minimisations  :  2980
 total energy-change (2. order) : 0.3380535E-05  (-0.1467060E-04)
 number of electron      31.9999999 magnetization 
 augmentation part       -1.8357783 magnetization 

 Free energy of the ion-electron system (eV)
  ---------------------------------------------------
  alpha Z        PSCENC =        13.44915721
  Ewald energy   TEWEN  =      -914.08579262
  -Hartree energ DENC   =       -59.63886472
  -exchange      EXHF   =         0.00000000
  -V(xc)+E(xc)   XCENC  =       -71.87126354
  PAW double counting   =      3500.49893031    -3360.64430736
  entropy T*S    EENTRO =        -0.00000013
  eigenvalues    EBANDS =        24.37806472
  atomic energy  EATOM  =       824.53369109
  Solvation  Ediel_sol  =         0.00000000
  ---------------------------------------------------
  free energy    TOTEN  =       -43.38038505 eV

  energy without entropy =      -43.38038492  energy(sigma->0) =      -43.38038499


--------------------------------------------------------------------------------------------------------




 average (electrostatic) potential at core
  the test charge radii are     0.9892
  (the norm of the test charge is              1.0000)
       1 -83.2563       2 -83.2563       3 -83.2563       4 -83.2563       5 -83.2563
       6 -83.2563       7 -83.2563       8 -83.2563
 
 
 
 E-fermi :   6.1055     XC(G=0):  -9.4111     alpha+bet :-11.9779


 k-point     1 :       0.0000    0.0000    0.0000
  band No.  band energies     occupation 
      1      -6.1339      2.00000
      2      -1.9901      2.00000
      3      -1.9901      2.00000
      4      -1.9901      2.00000
      5      -1.9901      2.00000
      6      -1.9901      2.00000
      7      -1.9901      2.00000
      8       2.9743      2.00000
      9       2.9743      2.00000
     10       2.9743      2.00000
     11       2.9743      2.00000
     12       2.9743      2.00000
     13       2.9743      2.00000
     14       5.8220      1.99994
     15       5.8220      1.99994
     16       5.8220      1.99994
     17       6.5326      0.00000
     18       6.5326      0.00000
     19       6.5326      0.00000
     20       6.5326      0.00000
     21       6.5326      0.00000
     22       6.5326      0.00000
     23       8.3890      0.00000
     24       8.3890      0.00000
     25       8.3890      0.00000

 k-point     2 :       0.0909    0.0000    0.0000
  band No.  band energies     occupation 
      1      -6.0977      2.00000
      2      -2.6708      2.00000
      3      -1.9782      2.00000
      4      -1.9782      2.00000
      5      -1.9782      2.00000
      6      -1.9782      2.00000
      7      -1.2664      2.00000
      8       2.8699      2.00000
      9       2.8699      2.00000
     10       2.8699      2.00000
     11       2.8699      2.00000
     12       3.0069      2.00000
     13       3.0069      2.00000
     14       5.5880      2.00000
     15       5.6751      2.00000
     16       5.6751      2.00000
     17       6.4188      0.00001
     18       6.7281      0.00000
     19       6.7281      0.00000
     20       6.7281      0.00000
     21       6.7281      0.00000
     22       6.7443      0.00000
     23       8.3011      0.00000
     24       8.5804      0.00000
     25       8.5805      0.00000

 k-point     3 :       0.1818    0.0000    0.0000
  band No.  band energies     occupation 
      1      -5.9893      2.00000
      2      -3.3020      2.00000
      3      -1.9454      2.00000
      4      -1.9454      2.00000
      5      -1.9454      2.00000
      6      -1.9454      2.00000
      7      -0.5070      2.00000
      8       2.6215      2.00000
      9       2.6215      2.00000
     10       2.6215      2.00000
     11       2.6215      2.00000
     12       3.1044      2.00000
     13       3.1044      2.00000
     14       5.0208      2.00000
     15       5.3276      2.00000
     16       5.3276      2.00000
     17       6.3974      0.00004
     18       7.0582      0.00000
     19       7.2517      0.00000
     20       7.2517      0.00000
     21       7.2517      0.00000
     22       7.2517      0.00000
     23       8.0680      0.00000
     24       9.0608      0.00000
     25       9.0608      0.00000

 k-point     4 :       0.2727    0.0000    0.0000
  band No.  band energies     occupation 
      1      -5.8093      2.00000
      2      -3.8783      2.00000
      3      -1.9005      2.00000
      4      -1.9005      2.00000
      5      -1.9005      2.00000
      6      -1.9005      2.00000
      7       0.2797      2.00000
      8       2.3424      2.00000
      9       2.3424      2.00000
     10       2.3424      2.00000
     11       2.3424      2.00000
     12       3.2660      2.00000
     13       3.2660      2.00000
     14       4.3025      2.00000
     15       4.9112      2.00000
     16       4.9112      2.00000
     17       6.4624      0.00000
     18       7.4771      0.00000
     19       7.7539      0.00000
     20       7.9946      0.00000
     21       7.9946      0.00000
     22       7.9946      0.00000
     23       7.9946      0.00000
     24       9.6964      0.00000
     25       9.6966      0.00000

 k-point     5 :       0.3636    0.0000    0.0000
  band No.  band energies     occupation 
      1      -5.5584      2.00000
      2      -4.3953      2.00000
      3      -1.8570      2.00000
      4      -1.8570      2.00000
      5      -1.8570      2.00000
      6      -1.8570      2.00000
      7       1.0849      2.00000
      8       2.1156      2.00000
      9       2.1156      2.00000
     10       2.1156      2.00000
     11       2.1156      2.00000
     12       3.4898      2.00000
     13       3.4898      2.00000
     14       3.5221      2.00000
     15       4.4952      2.00000
     16       4.4952      2.00000
     17       6.6070      0.00000
     18       7.4173      0.00000
     19       8.0003      0.00000
     20       8.8770      0.00000
     21       8.8770      0.00000
     22       8.8770      0.00000
     23       8.8770      0.00000
     24       9.9591      0.00000
     25      10.4151      0.00000

 k-point     6 :       0.4545    0.0000    0.0000
  band No.  band energies     occupation 
      1      -5.2379      2.00000
      2      -4.8494      2.00000
      3      -1.8300      2.00000
      4      -1.8300      2.00000
      5      -1.8300      2.00000
      6      -1.8300      2.00000
      7       1.8998      2.00000
      8       1.9902      2.00000
      9       1.9902      2.00000
     10       1.9902      2.00000
     11       1.9902      2.00000
     12       2.7157      2.00000
     13       3.7729      2.00000
     14       3.7729      2.00000
     15       4.1108      2.00000
     16       4.1108      2.00000
     17       6.8228      0.00000
     18       7.0984      0.00000
     19       8.6187      0.00000
     20       9.3034      0.00000
     21       9.8105      0.00000
     22       9.8105      0.00000
     23       9.8105      0.00000
     24       9.8105      0.00000
     25      11.1346      0.00000

 k-point     7 :       0.0909    0.0909    0.0000
  band No.  band energies     occupation 
      1      -6.0616      2.00000
      2      -2.6518      2.00000
      3      -2.6518      2.00000
      4      -2.0235      2.00000
      5      -1.9119      2.00000
      6      -1.2646      2.00000
      7      -1.2646      2.00000
      8       2.5624      2.00000
      9       2.8872      2.00000
     10       2.8872      2.00000
     11       2.9222      2.00000
     12       2.9222      2.00000
     13       3.0321      2.00000
     14       5.1918      2.00000
     15       5.5280      2.00000
     16       5.7896      1.99999
     17       6.5995      0.00000
     18       6.6229      0.00000
     19       6.6229      0.00000
     20       6.9292      0.00000
     21       6.9292      0.00000
     22       7.1867      0.00000
     23       8.4632      0.00000
     24       8.5264      0.00000
     25       8.6062      0.00000

 k-point     8 :       0.1818    0.0909    0.0000
  band No.  band energies     occupation 
      1      -5.9535      2.00000
      2      -3.2780      2.00000
      3      -2.5969      2.00000
      4      -2.0562      2.00000
      5      -1.8219      2.00000
      6      -1.2631      2.00000
      7      -0.5199      2.00000
      8       2.2234      2.00000
      9       2.6016      2.00000
     10       2.7233      2.00000
     11       2.9731      2.00000
     12       2.9858      2.00000
     13       3.0450      2.00000
     14       4.6160      2.00000
     15       5.1794      2.00000
     16       5.5867      2.00000
     17       6.6080      0.00000
     18       6.8601      0.00000
     19       7.1629      0.00000
     20       7.2309      0.00000
     21       7.4315      0.00000
     22       7.8687      0.00000
     23       8.2636      0.00000
     24       8.8768      0.00000
     25       8.9855      0.00000

 k-point     9 :       0.2727    0.0909    0.0000
  band No.  band energies     occupation 
      1      -5.7739      2.00000
      2      -3.8507      2.00000
      3      -2.5124      2.00000
      4      -2.0892      2.00000
      5      -1.7115      2.00000
      6      -1.2725      2.00000
      7       0.2456      2.00000
      8       1.9372      2.00000
      9       2.2723      2.00000
     10       2.5117      2.00000
     11       2.7961      2.00000
     12       3.1261      2.00000
     13       3.2385      2.00000
     14       3.9692      2.00000
     15       4.7614      2.00000
     16       5.1681      2.00000
     17       6.6773      0.00000
     18       7.4442      0.00000
     19       7.6364      0.00000
     20       7.9196      0.00000
     21       7.9576      0.00000
     22       8.1547      0.00000
     23       8.6980      0.00000
     24       9.3837      0.00000
     25       9.6296      0.00000

 k-point    10 :       0.3636    0.0909    0.0000
  band No.  band energies     occupation 
      1      -5.5238      2.00000
      2      -4.3650      2.00000
      3      -2.4095      2.00000
      4      -2.1368      2.00000
      5      -1.5899      2.00000
      6      -1.3060      2.00000
      7       1.0202      2.00000
      8       1.7543      2.00000
      9       1.9826      2.00000
     10       2.3655      2.00000
     11       2.5747      2.00000
     12       3.2762      2.00000
     13       3.3440      2.00000
     14       3.5028      2.00000
     15       4.3443      2.00000
     16       4.6917      2.00000
     17       6.8241      0.00000
     18       7.6275      0.00000
     19       8.1453      0.00000
     20       8.2411      0.00000
     21       8.8132      0.00000
     22       9.0182      0.00000
     23       9.6219      0.00000
     24       9.8538      0.00000
     25      10.3752      0.00000

 k-point    11 :       0.4545    0.0909    0.0000
  band No.  band energies     occupation 
      1      -5.2043      2.00000
      2      -4.8172      2.00000
      3      -2.3028      2.00000
      4      -2.2083      2.00000
      5      -1.4715      2.00000
      6      -1.3728      2.00000
      7       1.7010      2.00000
      8       1.7820      2.00000
      9       1.7915      2.00000
     10       2.3261      2.00000
     11       2.4024      2.00000
     12       2.5472      2.00000
     13       3.6237      2.00000
     14       3.8370      2.00000
     15       3.9599      2.00000
     16       4.2373      2.00000
     17       7.0397      0.00000
     18       7.3130      0.00000
     19       8.7485      0.00000
     20       9.1609      0.00000
     21       9.4096      0.00000
     22       9.7841      0.00000
     23       9.8126      0.00000
     24      10.4349      0.00000
     25      10.5229      0.00000

 k-point    12 :       0.1818    0.1818    0.0000
  band No.  band energies     occupation 
      1      -5.8463      2.00000
      2      -3.2073      2.00000
      3      -3.2073      2.00000
      4      -2.1668      2.00000
      5      -1.6777      2.00000
      6      -0.5625      2.00000
      7      -0.5625      2.00000
      8       1.8767      2.00000
      9       2.6602      2.00000
     10       2.6602      2.00000
     11       2.9105      2.00000
     12       2.9105      2.00000
     13       3.2031      2.00000
     14       4.0345      2.00000
     15       4.8277      2.00000
     16       5.6796      2.00000
     17       6.7975      0.00000
     18       7.1594      0.00000
     19       7.1594      0.00000
     20       7.7073      0.00000
     21       7.7073      0.00000
     22       8.6372      0.00000
     23       8.6858      0.00000
     24       8.7832      0.00000
     25       8.8553      0.00000

 k-point    13 :       0.2727    0.1818    0.0000
  band No.  band energies     occupation 
      1      -5.6682      2.00000
      2      -3.7687      2.00000
      3      -3.0945      2.00000
      4      -2.2907      2.00000
      5      -1.5101      2.00000
      6      -0.6437      2.00000
      7       0.1424      2.00000
      8       1.6331      2.00000
      9       2.2945      2.00000
     10       2.7857      2.00000
     11       2.7936      2.00000
     12       3.1859      2.00000
     13       3.2122      2.00000
     14       3.4238      2.00000
     15       4.4060      2.00000
     16       5.4442      2.00000
     17       7.1187      0.00000
     18       7.2352      0.00000
     19       7.9242      0.00000
     20       8.0828      0.00000
     21       8.4048      0.00000
     22       8.4711      0.00000
     23       9.0155      0.00000
     24       9.4512      0.00000
     25       9.5130      0.00000

 k-point    14 :       0.3636    0.1818    0.0000
  band No.  band energies     occupation 
      1      -5.4202      2.00000
      2      -4.2749      2.00000
      3      -2.9477      2.00000
      4      -2.4366      2.00000
      5      -1.3230      2.00000
      6      -0.7696      2.00000
      7       0.8377      2.00000
      8       1.5203      2.00000
      9       1.9585      2.00000
     10       2.7338      2.00000
     11       2.8011      2.00000
     12       2.9983      2.00000
     13       3.0774      2.00000
     14       3.5488      2.00000
     15       3.9865      2.00000
     16       5.0013      2.00000
     17       7.3836      0.00000
     18       7.7557      0.00000
     19       8.1616      0.00000
     20       8.5588      0.00000
     21       8.8225      0.00000
     22       9.2390      0.00000
     23       9.4624      0.00000
     24      10.2071      0.00000
     25      10.4521      0.00000

 k-point    15 :       0.4545    0.1818    0.0000
  band No.  band energies     occupation 
      1      -5.1038      2.00000
      2      -4.7212      2.00000
      3      -2.7788      2.00000
      4      -2.6031      2.00000
      5      -1.1262      2.00000
      6      -0.9355      2.00000
      7       1.5132      2.00000
      8       1.5454      2.00000
      9       1.6985      2.00000
     10       2.1663      2.00000
     11       2.7782      2.00000
     12       2.9069      2.00000
     13       3.2699      2.00000
     14       3.6023      2.00000
     15       3.9908      2.00000
     16       4.4897      2.00000
     17       7.5960      0.00000
     18       7.8609      0.00000
     19       8.5954      0.00000
     20       9.1242      0.00000
     21       9.5057      0.00000
     22       9.6782      0.00000
     23       9.8051      0.00000
     24      10.2817      0.00000
     25      10.3874      0.00000

 k-point    16 :       0.2727    0.2727    0.0000
  band No.  band energies     occupation 
      1      -5.4926      2.00000
      2      -3.6356      2.00000
      3      -3.6356      2.00000
      4      -2.5130      2.00000
      5      -1.2885      2.00000
      6      -0.0279      2.00000
      7      -0.0279      2.00000
      8       1.4590      2.00000
      9       2.4024      2.00000
     10       2.4024      2.00000
     11       2.8513      2.00000
     12       3.1643      2.00000
     13       3.1643      2.00000
     14       3.4790      2.00000
     15       3.9806      2.00000
     16       5.4657      2.00000
     17       7.1177      0.00000
     18       8.0026      0.00000
     19       8.0026      0.00000
     20       8.7493      0.00000
     21       8.7493      0.00000
     22       8.8836      0.00000
     23       9.0559      0.00000
     24       9.3046      0.00000
     25      10.4107      0.00000

 k-point    17 :       0.3636    0.2727    0.0000
  band No.  band energies     occupation 
      1      -5.2486      2.00000
      2      -4.1271      2.00000
      3      -3.4570      2.00000
      4      -2.7540      2.00000
      5      -1.0444      2.00000
      6      -0.2532      2.00000
      7       0.5677      2.00000
      8       1.4235      2.00000
      9       2.0333      2.00000
     10       2.2793      2.00000
     11       2.5897      2.00000
     12       3.2080      2.00000
     13       3.5373      2.00000
     14       3.5596      2.00000
     15       3.6357      2.00000
     16       5.1885      2.00000
     17       7.4909      0.00000
     18       8.1479      0.00000
     19       8.8749      0.00000
     20       8.8992      0.00000
     21       9.0453      0.00000
     22       9.1904      0.00000
     23       9.5283      0.00000
     24       9.9933      0.00000
     25      10.1384      0.00000

 k-point    18 :       0.4545    0.2727    0.0000
  band No.  band energies     occupation 
      1      -4.9377      2.00000
      2      -4.5628      2.00000
      3      -3.2418      2.00000
      4      -3.0023      2.00000
      5      -0.7820      2.00000
      6      -0.5122      2.00000
      7       1.1449      2.00000
      8       1.5192      2.00000
      9       1.7122      2.00000
     10       1.7297      2.00000
     11       2.8504      2.00000
     12       3.1771      2.00000
     13       3.3146      2.00000
     14       3.4482      2.00000
     15       4.1702      2.00000
     16       4.7157      2.00000
     17       8.1684      0.00000
     18       8.3513      0.00000
     19       8.6003      0.00000
     20       9.0333      0.00000
     21       9.4169      0.00000
     22       9.7025      0.00000
     23       9.8807      0.00000
     24       9.9589      0.00000
     25      10.3756      0.00000

 k-point    19 :       0.3636    0.3636    0.0000
  band No.  band energies     occupation 
      1      -5.0104      2.00000
      2      -3.9257      2.00000
      3      -3.9257      2.00000
      4      -3.0772      2.00000
      5      -0.7464      2.00000
      6       0.2473      2.00000
      7       0.2473      2.00000
      8       1.4581      2.00000
      9       1.7556      2.00000
     10       2.1979      2.00000
     11       2.1979      2.00000
     12       3.1394      2.00000
     13       3.7563      2.00000
     14       3.7563      2.00000
     15       3.8441      2.00000
     16       5.1371      2.00000
     17       7.5412      0.00000
     18       8.8170      0.00000
     19       9.0364      0.00000
     20       9.0364      0.00000
     21       9.5114      0.00000
     22       9.5115      0.00000
     23       9.5722      0.00000
     24       9.8788      0.00000
     25      10.0204      0.00000

 k-point    20 :       0.4545    0.3636    0.0000
  band No.  band energies     occupation 
      1      -4.7080      2.00000
      2      -4.3449      2.00000
      3      -3.6770      2.00000
      4      -3.3899      2.00000
      5      -0.4273      2.00000
      6      -0.0918      2.00000
      7       0.7424      2.00000
      8       1.2430      2.00000
      9       1.6104      2.00000
     10       1.8633      2.00000
     11       2.4436      2.00000
     12       2.7613      2.00000
     13       3.8790      2.00000
     14       3.9396      2.00000
     15       4.3225      2.00000
     16       4.8206      2.00000
     17       7.9502      0.00000
     18       8.6473      0.00000
     19       8.8549      0.00000
     20       9.1172      0.00000
     21       9.2241      0.00000
     22       9.4457      0.00000
     23      10.0060      0.00000
     24      10.4815      0.00000
     25      10.6405      0.00000

 k-point    21 :       0.4545    0.4545    0.0000
  band No.  band energies     occupation 
      1      -4.4179      2.00000
      2      -4.0720      2.00000
      3      -4.0720      2.00000
      4      -3.7506      2.00000
      5      -0.0546      2.00000
      6       0.3373      2.00000
      7       0.3373      2.00000
      8       0.7820      2.00000
      9       1.8048      2.00000
     10       2.0879      2.00000
     11       2.0879      2.00000
     12       2.3917      2.00000
     13       4.2718      2.00000
     14       4.3843      2.00000
     15       4.3843      2.00000
     16       4.7210      2.00000
     17       8.0288      0.00000
     18       8.4417      0.00000
     19       8.4417      0.00000
     20       8.5001      0.00000
     21      10.1680      0.00000
     22      10.1680      0.00000
     23      10.2320      0.00000
     24      10.5616      0.00000
     25      11.0414      0.00000

 k-point    22 :       0.0909    0.0909    0.0909
  band No.  band energies     occupation 
      1      -6.0256      2.00000
      2      -2.6358      2.00000
      3      -2.6358      2.00000
      4      -2.6358      2.00000
      5      -1.2632      2.00000
      6      -1.2632      2.00000
      7      -1.2632      2.00000
      8       2.6038      2.00000
      9       2.6038      2.00000
     10       2.6038      2.00000
     11       3.0644      2.00000
     12       3.0644      2.00000
     13       3.0644      2.00000
     14       4.8367      2.00000
     15       5.6546      2.00000
     16       5.6546      2.00000
     17       6.6142      0.00000
     18       6.6142      0.00000
     19       6.6142      0.00000
     20       7.2668      0.00000
     21       7.2668      0.00000
     22       7.2668      0.00000
     23       8.4195      0.00000
     24       8.6358      0.00000
     25       8.6358      0.00000

 k-point    23 :       0.1818    0.0909    0.0909
  band No.  band energies     occupation 
      1      -5.9178      2.00000
      2      -3.2554      2.00000
      3      -2.5909      2.00000
      4      -2.5909      2.00000
      5      -1.2616      2.00000
      6      -1.2616      2.00000
      7      -0.5364      2.00000
      8       2.2731      2.00000
      9       2.2731      2.00000
     10       2.7286      2.00000
     11       3.0225      2.00000
     12       3.0225      2.00000
     13       3.1608      2.00000
     14       4.2710      2.00000
     15       5.3286      2.00000
     16       5.5272      2.00000
     17       6.6695      0.00000
     18       6.8912      0.00000
     19       6.8912      0.00000
     20       7.4951      0.00000
     21       7.9285      0.00000
     22       7.9285      0.00000
     23       8.3615      0.00000
     24       8.6865      0.00000
     25       9.0734      0.00000

 k-point    24 :       0.2727    0.0909    0.0909
  band No.  band energies     occupation 
      1      -5.7387      2.00000
      2      -3.8238      2.00000
      3      -2.5272      2.00000
      4      -2.5272      2.00000
      5      -1.2650      2.00000
      6      -1.2650      2.00000
      7       0.2039      2.00000
      8       1.9911      2.00000
      9       1.9911      2.00000
     10       2.8478      2.00000
     11       2.8478      2.00000
     12       2.9382      2.00000
     13       3.3204      2.00000
     14       3.6589      2.00000
     15       4.9301      2.00000
     16       5.1161      2.00000
     17       6.7812      0.00000
     18       7.4781      0.00000
     19       7.4781      0.00000
     20       7.8532      0.00000
     21       8.1046      0.00000
     22       8.7494      0.00000
     23       8.7494      0.00000
     24       9.1335      0.00000
     25       9.6546      0.00000

 k-point    25 :       0.3636    0.0909    0.0909
  band No.  band energies     occupation 
      1      -5.4893      2.00000
      2      -4.3353      2.00000
      3      -2.4627      2.00000
      4      -2.4627      2.00000
      5      -1.2755      2.00000
      6      -1.2755      2.00000
      7       0.9425      2.00000
      8       1.7988      2.00000
      9       1.7988      2.00000
     10       2.6562      2.00000
     11       2.6562      2.00000
     12       3.0220      2.00000
     13       3.2342      2.00000
     14       3.5412      2.00000
     15       4.5270      2.00000
     16       4.5963      2.00000
     17       6.9548      0.00000
     18       7.7853      0.00000
     19       8.2743      0.00000
     20       8.2743      0.00000
     21       8.3281      0.00000
     22       9.6645      0.00000
     23       9.6645      0.00000
     24       9.7019      0.00000
     25      10.3142      0.00000

 k-point    26 :       0.4545    0.0909    0.0909
  band No.  band energies     occupation 
      1      -5.1709      2.00000
      2      -4.7854      2.00000
      3      -2.4210      2.00000
      4      -2.4210      2.00000
      5      -1.2861      2.00000
      6      -1.2861      2.00000
      7       1.6644      2.00000
      8       1.7058      2.00000
      9       1.7058      2.00000
     10       2.3586      2.00000
     11       2.5362      2.00000
     12       2.5362      2.00000
     13       3.6167      2.00000
     14       3.8199      2.00000
     15       4.0786      2.00000
     16       4.1515      2.00000
     17       7.1874      0.00000
     18       7.4698      0.00000
     19       8.9042      0.00000
     20       9.1893      0.00000
     21       9.1893      0.00000
     22       9.5299      0.00000
     23      10.1765      0.00000
     24      10.1765      0.00000
     25      10.7166      0.00000

 k-point    27 :       0.1818    0.1818    0.0909
  band No.  band energies     occupation 
      1      -5.8109      2.00000
      2      -3.1895      2.00000
      3      -3.1895      2.00000
      4      -2.5791      2.00000
      5      -1.2550      2.00000
      6      -0.5890      2.00000
      7      -0.5890      2.00000
      8       1.9464      2.00000
      9       2.4218      2.00000
     10       2.4218      2.00000
     11       3.1336      2.00000
     12       3.1336      2.00000
     13       3.2342      2.00000
     14       3.7096      2.00000
     15       5.0759      2.00000
     16       5.5768      2.00000
     17       6.8382      0.00000
     18       6.9840      0.00000
     19       6.9840      0.00000
     20       8.1083      0.00000
     21       8.1083      0.00000
     22       8.3958      0.00000
     23       8.6864      0.00000
     24       8.8029      0.00000
     25       9.0995      0.00000

 k-point    28 :       0.2727    0.1818    0.0909
  band No.  band energies     occupation 
      1      -5.6334      2.00000
      2      -3.7446      2.00000
      3      -3.0863      2.00000
      4      -2.5794      2.00000
      5      -1.2344      2.00000
      6      -0.6821      2.00000
      7       0.0806      2.00000
      8       1.7230      2.00000
      9       2.1477      2.00000
     10       2.6671      2.00000
     11       3.0071      2.00000
     12       3.1223      2.00000
     13       3.2468      2.00000
     14       3.3222      2.00000
     15       4.6698      2.00000
     16       5.3558      2.00000
     17       7.1361      0.00000
     18       7.1599      0.00000
     19       7.5785      0.00000
     20       8.4078      0.00000
     21       8.4163      0.00000
     22       8.8930      0.00000
     23       8.9044      0.00000
     24       9.5388      0.00000
     25       9.5571      0.00000

 k-point    29 :       0.3636    0.1818    0.0909
  band No.  band energies     occupation 
      1      -5.3863      2.00000
      2      -4.2469      2.00000
      3      -2.9573      2.00000
      4      -2.6147      2.00000
      5      -1.1834      2.00000
      6      -0.8111      2.00000
      7       0.7297      2.00000
      8       1.6239      2.00000
      9       1.9249      2.00000
     10       2.5354      2.00000
     11       2.8995      2.00000
     12       2.9980      2.00000
     13       3.1239      2.00000
     14       3.5954      2.00000
     15       4.2375      2.00000
     16       4.9166      2.00000
     17       7.3433      0.00000
     18       7.7940      0.00000
     19       8.1890      0.00000
     20       8.3723      0.00000
     21       8.8242      0.00000
     22       9.3378      0.00000
     23       9.7872      0.00000
     24      10.1516      0.00000
     25      10.4756      0.00000

 k-point    30 :       0.4545    0.1818    0.0909
  band No.  band energies     occupation 
      1      -5.0712      2.00000
      2      -4.6904      2.00000
      3      -2.8199      2.00000
      4      -2.6979      2.00000
      5      -1.0887      2.00000
      6      -0.9563      2.00000
      7       1.3508      2.00000
      8       1.6422      2.00000
      9       1.7521      2.00000
     10       1.9485      2.00000
     11       2.8864      2.00000
     12       2.9760      2.00000
     13       3.3887      2.00000
     14       3.8074      2.00000
     15       3.9627      2.00000
     16       4.4187      2.00000
     17       7.5986      0.00000
     18       7.8890      0.00000
     19       8.6299      0.00000
     20       9.2622      0.00000
     21       9.3423      0.00000
     22       9.6373      0.00000
     23       9.7796      0.00000
     24      10.2672      0.00000
     25      10.3148      0.00000

 k-point    31 :       0.2727    0.2727    0.0909
  band No.  band energies     occupation 
      1      -5.4586      2.00000
      2      -3.6169      2.00000
[...]
     20       8.1008      0.00000
     21       9.1410      0.00000
     22       9.3272      0.00000
     23       9.3272      0.00000
     24       9.3336      0.00000
     25      10.6338      0.00000

 k-point    45 :       0.4545    0.3636    0.1818
  band No.  band energies     occupation 
      1      -4.6905      2.00000
      2      -4.3508      2.00000
      3      -3.7642      2.00000
      4      -3.5532      2.00000
      5      -0.9329      2.00000
      6      -0.6984      2.00000
      7      -0.0219      2.00000
      8       0.3906      2.00000
      9       2.1629      2.00000
     10       2.3803      2.00000
     11       3.0029      2.00000
     12       3.4008      2.00000
     13       3.8140      2.00000
     14       3.8581      2.00000
     15       4.1523      2.00000
     16       4.5768      2.00000
     17       7.8522      0.00000
     18       8.1557      0.00000
     19       8.2716      0.00000
     20       8.4655      0.00000
     21       8.9100      0.00000
     22       8.9499      0.00000
     23       8.9763      0.00000
     24       9.7390      0.00000
     25       9.7609      0.00000

 k-point    46 :       0.4545    0.4545    0.1818
  band No.  band energies     occupation 
      1      -4.4222      2.00000
      2      -4.1090      2.00000
      3      -4.1090      2.00000
      4      -3.8363      2.00000
      5      -0.7003      2.00000
      6      -0.3915      2.00000
      7      -0.3915      2.00000
      8      -0.0265      2.00000
      9       2.4237      2.00000
     10       2.7108      2.00000
     11       2.7108      2.00000
     12       3.0531      2.00000
     13       4.1495      2.00000
     14       4.2408      2.00000
     15       4.2408      2.00000
     16       4.5293      2.00000
     17       7.8785      0.00000
     18       8.0965      0.00000
     19       8.1817      0.00000
     20       8.1817      0.00000
     21       9.1667      0.00000
     22       9.1667      0.00000
     23       9.4136      0.00000
     24       9.5015      0.00000
     25       9.8742      0.00000

 k-point    47 :       0.2727    0.2727    0.2727
  band No.  band energies     occupation 
      1      -5.2729      2.00000
      2      -3.6104      2.00000
      3      -3.6104      2.00000
      4      -3.6104      2.00000
      5      -0.7410      2.00000
      6      -0.7410      2.00000
      7      -0.7410      2.00000
      8       1.3304      2.00000
      9       2.2997      2.00000
     10       2.2997      2.00000
     11       2.2997      2.00000
     12       3.5622      2.00000
     13       3.5622      2.00000
     14       3.5622      2.00000
     15       4.7936      2.00000
     16       4.7936      2.00000
     17       7.2938      0.00000
     18       7.2938      0.00000
     19       7.2938      0.00000
     20       7.4884      0.00000
     21       9.1296      0.00000
     22       9.1296      0.00000
     23      10.5116      0.00000
     24      10.5116      0.00000
     25      10.5116      0.00000

 k-point    48 :       0.3636    0.2727    0.2727
  band No.  band energies     occupation 
      1      -5.0450      2.00000
      2      -4.0286      2.00000
      3      -3.5376      2.00000
      4      -3.5376      2.00000
      5      -0.9593      2.00000
      6      -0.9593      2.00000
      7      -0.4087      2.00000
      8       0.8292      2.00000
      9       2.3697      2.00000
     10       2.3697      2.00000
     11       2.9022      2.00000
     12       3.6452      2.00000
     13       3.6452      2.00000
     14       3.7486      2.00000
     15       4.5192      2.00000
     16       4.6473      2.00000
     17       7.5395      0.00000
     18       7.5817      0.00000
     19       7.6246      0.00000
     20       7.6246      0.00000
     21       8.9518      0.00000
     22       9.3777      0.00000
     23       9.9372      0.00000
     24       9.9372      0.00000
     25      10.0045      0.00000

 k-point    49 :       0.4545    0.2727    0.2727
  band No.  band energies     occupation 
      1      -4.7575      2.00000
      2      -4.4158      2.00000
      3      -3.4902      2.00000
      4      -3.4902      2.00000
      5      -1.0867      2.00000
      6      -1.0867      2.00000
      7      -0.0408      2.00000
      8       0.3710      2.00000
      9       2.4231      2.00000
     10       2.4231      2.00000
     11       3.5476      2.00000
     12       3.6516      2.00000
     13       3.6516      2.00000
     14       3.9779      2.00000
     15       4.1672      2.00000
     16       4.2398      2.00000
     17       7.7777      0.00000
     18       7.8265      0.00000
     19       8.2237      0.00000
     20       8.2237      0.00000
     21       8.9134      0.00000
     22       9.0512      0.00000
     23       9.0512      0.00000
     24       9.3190      0.00000
     25       9.7018      0.00000

 k-point    50 :       0.3636    0.3636    0.2727
  band No.  band energies     occupation 
      1      -4.8277      2.00000
      2      -3.8928      2.00000
      3      -3.8928      2.00000
      4      -3.5586      2.00000
      5      -1.1021      2.00000
      6      -0.7352      2.00000
      7      -0.7352      2.00000
      8       0.3519      2.00000
      9       2.5724      2.00000
     10       2.9590      2.00000
     11       2.9590      2.00000
     12       3.8635      2.00000
     13       3.8635      2.00000
     14       3.8767      2.00000
     15       4.2998      2.00000
     16       4.7213      2.00000
     17       7.4905      0.00000
     18       7.6349      0.00000
     19       7.8241      0.00000
     20       7.8241      0.00000
     21       9.0594      0.00000
     22       9.2175      0.00000
     23       9.3501      0.00000
     24       9.3501      0.00000
     25       9.8801      0.00000

 k-point    51 :       0.4545    0.3636    0.2727
  band No.  band energies     occupation 
      1      -4.5567      2.00000
      2      -4.2403      2.00000
      3      -3.7510      2.00000
      4      -3.6312      2.00000
      5      -1.1129      2.00000
      6      -0.9827      2.00000
      7      -0.4382      2.00000
      8      -0.0737      2.00000
      9       2.7594      2.00000
     10       2.9023      2.00000
     11       3.5159      2.00000
     12       3.9465      2.00000
     13       3.9610      2.00000
     14       3.9709      2.00000
     15       4.1583      2.00000
     16       4.5039      2.00000
     17       7.7130      0.00000
     18       7.9187      0.00000
     19       7.9389      0.00000
     20       8.2395      0.00000
     21       8.7610      0.00000
     22       8.9210      0.00000
     23       8.9376      0.00000
     24       9.2048      0.00000
     25       9.4335      0.00000

 k-point    52 :       0.4545    0.4545    0.2727
  band No.  band energies     occupation 
      1      -4.3114      2.00000
      2      -4.0355      2.00000
      3      -4.0355      2.00000
      4      -3.8226      2.00000
      5      -1.0015      2.00000
      6      -0.7678      2.00000
      7      -0.7678      2.00000
      8      -0.4591      2.00000
      9       3.0572      2.00000
     10       3.3172      2.00000
     11       3.3172      2.00000
     12       3.6657      2.00000
     13       4.2170      2.00000
     14       4.2823      2.00000
     15       4.2823      2.00000
     16       4.5209      2.00000
     17       7.7518      0.00000
     18       7.8707      0.00000
     19       7.9725      0.00000
     20       7.9725      0.00000
     21       8.8968      0.00000
     22       8.8968      0.00000
     23       9.1282      0.00000
     24       9.2129      0.00000
     25       9.2596      0.00000

 k-point    53 :       0.3636    0.3636    0.3636
  band No.  band energies     occupation 
      1      -4.6261      2.00000
      2      -3.8184      2.00000
      3      -3.8184      2.00000
      4      -3.8184      2.00000
      5      -1.0094      2.00000
      6      -1.0094      2.00000
      7      -1.0094      2.00000
      8      -0.1016      2.00000
      9       3.2311      2.00000
     10       3.2311      2.00000
     11       3.2311      2.00000
     12       4.0249      2.00000
     13       4.0249      2.00000
     14       4.0249      2.00000
     15       4.5648      2.00000
     16       4.5648      2.00000
     17       7.2289      0.00000
     18       7.7631      0.00000
     19       7.7631      0.00000
     20       7.7631      0.00000
     21       9.0795      0.00000
     22       9.0795      0.00000
     23       9.2283      0.00000
     24       9.2283      0.00000
     25       9.2283      0.00000

 k-point    54 :       0.4545    0.3636    0.3636
  band No.  band energies     occupation 
      1      -4.3799      2.00000
      2      -4.1031      2.00000
      3      -3.7700      2.00000
      4      -3.7700      2.00000
      5      -1.1626      2.00000
      6      -1.1626      2.00000
      7      -0.7995      2.00000
      8      -0.4911      2.00000
      9       3.3701      2.00000
     10       3.3701      2.00000
     11       3.8737      2.00000
     12       4.1261      2.00000
     13       4.1261      2.00000
     14       4.1989      2.00000
     15       4.3846      2.00000
     16       4.3861      2.00000
     17       7.3661      0.00000
     18       7.6825      0.00000
     19       7.8888      0.00000
     20       7.8888      0.00000
     21       8.8617      0.00000
     22       8.8617      0.00000
     23       8.8819      0.00000
     24       8.9213      0.00000
     25       9.2182      0.00000

 k-point    55 :       0.4545    0.4545    0.3636
  band No.  band energies     occupation 
      1      -4.1739      2.00000
      2      -3.9605      2.00000
      3      -3.9605      2.00000
      4      -3.8411      2.00000
      5      -1.1914      2.00000
      6      -1.0625      2.00000
      7      -1.0625      2.00000
      8      -0.8296      2.00000
      9       3.6996      2.00000
     10       3.8824      2.00000
     11       3.8824      2.00000
     12       4.2007      2.00000
     13       4.2978      2.00000
     14       4.3259      2.00000
     15       4.3259      2.00000
     16       4.4956      2.00000
     17       7.3176      0.00000
     18       7.5857      0.00000
     19       7.5857      0.00000
     20       7.6534      0.00000
     21       8.8679      0.00000
     22       8.8679      0.00000
     23       8.9401      0.00000
     24       9.0283      0.00000
     25       9.0328      0.00000

 k-point    56 :       0.4545    0.4545    0.4545
  band No.  band energies     occupation 
      1      -4.0311      2.00000
      2      -3.9118      2.00000
      3      -3.9118      2.00000
      4      -3.9118      2.00000
      5      -1.2250      2.00000
      6      -1.2250      2.00000
      7      -1.2250      2.00000
      8      -1.0965      2.00000
      9       4.2325      2.00000
     10       4.2325      2.00000
     11       4.2325      2.00000
     12       4.3790      2.00000
     13       4.3790      2.00000
     14       4.3790      2.00000
     15       4.4479      2.00000
     16       4.4479      2.00000
     17       7.0938      0.00000
     18       7.2752      0.00000
     19       7.2752      0.00000
     20       7.2752      0.00000
     21       8.9160      0.00000
     22       8.9160      0.00000
     23       8.9160      0.00000
     24       8.9772      0.00000
     25       8.9772      0.00000


--------------------------------------------------------------------------------------------------------


 soft charge-density along one line, spin component           1
         0         1         2         3         4         5         6         7         8         9
 total charge-density along one line
 
 pseudopotential strength for first ion, spin component:           1
 18.438  25.724  -0.000   0.000   0.000  -0.000   0.000   0.000
 25.724  35.895  -0.000   0.000   0.000  -0.000   0.000   0.000
 -0.000  -0.000   4.181  -0.000   0.000   7.791  -0.000   0.000
  0.000   0.000  -0.000   4.181   0.000  -0.000   7.791   0.000
  0.000   0.000   0.000   0.000   4.181   0.000   0.000   7.791
 -0.000  -0.000   7.791  -0.000   0.000  14.529  -0.000   0.000
  0.000   0.000  -0.000   7.791   0.000  -0.000  14.529   0.000
  0.000   0.000   0.000   0.000   7.791   0.000   0.000  14.529
 total augmentation occupancy for first ion, spin component:           1
  5.528  -2.065   0.000   0.000  -0.000  -0.000   0.000   0.000
 -2.065   0.888  -0.000   0.000  -0.000   0.000  -0.000  -0.000
  0.000  -0.000   2.899  -0.000  -0.000  -0.648   0.000   0.000
 -0.000  -0.000  -0.000   2.899  -0.000   0.000  -0.648   0.000
 -0.000  -0.000  -0.000  -0.000   2.899   0.000   0.000  -0.648
  0.000   0.000  -0.648   0.000   0.000   0.153  -0.000  -0.000
 -0.000  -0.000   0.000  -0.648   0.000  -0.000   0.153  -0.000
 -0.000  -0.000   0.000   0.000  -0.648  -0.000  -0.000   0.153


------------------------ aborting loop because EDIFF is reached ----------------------------------------


    CHARGE:  cpu time    0.0886: real time    0.0890
    FORLOC:  cpu time    0.0012: real time    0.0012
    FORNL :  cpu time    0.2931: real time    0.2993
    STRESS:  cpu time    0.4117: real time    0.4240
    FORCOR:  cpu time    0.0148: real time    0.0153
    FORHAR:  cpu time    0.0042: real time    0.0042
    MIXING:  cpu time    0.0010: real time    0.0010
    OFIELD:  cpu time    0.0000: real time    0.0000

  FORCE on cell =-STRESS in cart. coord.  units (eV):
  Direction    XX          YY          ZZ          XY          YZ          ZX
  --------------------------------------------------------------------------------------
  Alpha Z    13.16690    13.16690    13.16690
  Ewald    -302.54918  -302.54918  -302.54918    -0.00000    -0.00000    -0.00000
  Hartree    20.23588    20.23588    20.23588    -0.00000    -0.00000    -0.00000
  E(xc)    -100.97464  -100.97464  -100.97464     0.00000    -0.00000    -0.00000
  Local    -118.01870  -118.01870  -118.01870     0.00000    -0.00000    -0.00000
  n-local   309.64427   313.11864   306.50863    -2.94207    -2.29376    -1.50595
  augment   -46.59885   -46.59885   -46.59885     0.00000     0.00000    -0.00000
  Kinetic   217.73001   229.52740   227.60067    -3.73593    -5.28121    -2.56046
  Fock        0.00000     0.00000     0.00000     0.00000     0.00000     0.00000
  -------------------------------------------------------------------------------------
  Total      -0.02872    -0.02872    -0.02872    -0.00000     0.00000     0.00000
  in kB      -0.28124    -0.28124    -0.28124    -0.00000     0.00000     0.00000
  external pressure =       -0.28 kB  Pullay stress =        0.00 kB


 VOLUME and BASIS-vectors are now :
 -----------------------------------------------------------------------------
  energy-cutoff  :      800.00
  volume of cell :      163.63
      direct lattice vectors                 reciprocal lattice vectors
     5.469533281 -0.000000000  0.000000000     0.182830956  0.000000000  0.000000000
    -0.000000000  5.469533281 -0.000000000     0.000000000  0.182830956  0.000000000
    -0.000000000 -0.000000000  5.469533281    -0.000000000  0.000000000  0.182830956

  length of vectors
     5.469533281  5.469533281  5.469533281     0.182830956  0.182830956  0.182830956


 FORCES acting on ions
    electron-ion (+dipol)            ewald-force                    non-local-force                 convergence-correction
 -----------------------------------------------------------------------------------------------
   -.585E-14 0.111E-14 -.121E-13   0.178E-13 0.355E-14 -.355E-14   0.521E-17 -.221E-16 0.139E-16   -.508E-14 0.928E-15 0.130E-13
   0.297E-32 0.352E-14 -.103E-13   0.178E-13 0.355E-14 0.000E+00   -.863E-18 0.911E-17 -.347E-16   -.515E-14 -.227E-15 -.129E-13
   -.195E-14 -.112E-14 0.846E-14   0.178E-13 0.355E-14 0.000E+00   -.147E-16 0.651E-17 -.347E-16   -.846E-16 0.650E-15 -.128E-13
   -.390E-14 -.910E-13 0.153E-12   0.178E-13 0.355E-14 -.355E-14   -.156E-16 0.490E-16 0.139E-16   -.460E-17 -.315E-16 0.134E-13
   0.110E-13 0.297E-12 -.787E-14   -.219E-13 -.524E-14 0.322E-14   0.113E-16 -.312E-16 -.199E-16   -.563E-14 0.857E-15 -.186E-13
   0.665E-31 0.110E-12 0.203E-12   -.172E-13 -.449E-14 0.320E-14   -.261E-17 0.113E-16 -.607E-17   0.196E-14 0.733E-15 -.185E-13
   0.162E-13 0.369E-12 -.247E-13   -.176E-13 -.269E-14 0.389E-14   0.173E-17 -.130E-17 0.330E-16   0.233E-14 0.658E-15 0.157E-13
   0.221E-13 0.788E-13 -.233E-12   -.213E-13 -.194E-14 0.388E-14   0.278E-16 -.169E-16 0.330E-16   -.548E-14 0.110E-14 0.156E-13
 -----------------------------------------------------------------------------------------------
   0.377E-13 0.768E-12 0.765E-13   -.697E-14 -.149E-15 0.708E-14   0.121E-16 0.434E-17 -.173E-17   -.171E-13 0.467E-14 -.517E-14
 
 
 POSITION                                       TOTAL-FORCE (eV/Angst)
 -----------------------------------------------------------------------------------
      0.00000     -0.00000      0.00000        -0.000000     -0.000000      0.000000
     -0.00000      2.73477      2.73477         0.000000      0.000000     -0.000000
      2.73477     -0.00000      2.73477        -0.000000      0.000000     -0.000000
      2.73477      2.73477     -0.00000        -0.000000      0.000000     -0.000000
      1.36738      1.36738      1.36738         0.000000     -0.000000      0.000000
      4.10215      4.10215      1.36738         0.000000      0.000000     -0.000000
      4.10215      1.36738      4.10215        -0.000000     -0.000000      0.000000
      1.36738      4.10215      4.10215         0.000000     -0.000000      0.000000
 -----------------------------------------------------------------------------------
    total drift:                                0.000000      0.000000      0.000000


--------------------------------------------------------------------------------------------------------



  FREE ENERGIE OF THE ION-ELECTRON SYSTEM (eV)
  ---------------------------------------------------
  free  energy   TOTEN  =       -43.40032587 eV

  energy  without entropy=      -43.40032583  energy(sigma->0) =      -43.40032585
 
 d Force = 0.0000000E+00[ 0.000E+00, 0.000E+00]  d Energy = 0.1067933E+00-0.107E+00
 d Force = 0.0000000E+00[ 0.000E+00, 0.000E+00]  d Ewald  = 0.1471300E+02-0.147E+02


--------------------------------------------------------------------------------------------------------


    POTLOK:  cpu time    0.0161: real time    0.0162


--------------------------------------------------------------------------------------------------------




--------------------------------------------------------------------------------------------------------


  
 reached required accuracy - stopping structural energy minimisation
 writing wavefunctions
     LOOP+:  cpu time   10.7844: real time   11.1200
    4ORBIT:  cpu time    0.0000: real time    0.0000

 total amount of memory used by VASP on root node    41707. kBytes
========================================================================

   base      :      30000. kBytes
   nonl-proj :       3841. kBytes
   fftplans  :       1332. kBytes
   grid      :       1850. kBytes
   one-center:          3. kBytes
   wavefun   :       4681. kBytes
 
  
  
 General timing and accounting informations for this job:
 ========================================================
  
                  Total CPU time used (sec):       37.286
                            User time (sec):       36.487
                          System time (sec):        0.800
                         Elapsed time (sec):       38.618
  
                   Maximum memory used (kb):      162196.
                   Average memory used (kb):           0.
  
                          Minor page faults:        42085
                          Major page faults:            0
                 Voluntary context switches:         1609
