       N       E                     dE             d eps       ncg     rms          rms(c)
DAV:   1     0.101822919965E+03    0.10182E+03   -0.18117E+04  2800   0.177E+03
DAV:   2    -0.367846958356E+02   -0.13861E+03   -0.13347E+03  3485   0.185E+02
DAV:   3    -0.440010713429E+02   -0.72164E+01   -0.71373E+01  3715   0.376E+01    0.106E+01
DAV:   4    -0.436098018305E+02    0.39127E+00   -0.10634E+00  3705   0.531E+00    0.572E+00
DAV:   5    -0.433721404870E+02    0.23766E+00   -0.44224E-01  3355   0.270E+00    0.619E-01
DAV:   6    -0.433780465406E+02   -0.59061E-02   -0.20325E-02  3750   0.665E-01    0.241E-01
DAV:   7    -0.433805902207E+02   -0.25437E-02   -0.51834E-03  3170   0.311E-01    0.897E-02
DAV:   8    -0.433805816050E+02    0.86157E-05   -0.15349E-04  2970   0.616E-02
   1 F= -.43380582E+02 E0= -.43380582E+02  d E =-.433806E+02
       N       E                     dE             d eps       ncg     rms          rms(c)
DAV:   1    -0.433970834380E+02   -0.16493E-01   -0.33904E+00  3200   0.750E+00
DAV:   2    -0.434049110086E+02   -0.78276E-02   -0.78275E-02  3585   0.125E+00
DAV:   3    -0.434049982427E+02   -0.87234E-04   -0.87234E-04  3605   0.163E-01    0.221E+00
DAV:   4    -0.433305426067E+02    0.74456E-01   -0.35916E-02  2905   0.681E-01    0.111E+00
DAV:   5    -0.432935285775E+02    0.37014E-01   -0.54997E-02  3280   0.857E-01    0.319E-01
DAV:   6    -0.432933369778E+02    0.19160E-03   -0.28507E-03  3355   0.253E-01    0.118E-01
DAV:   7    -0.432932550638E+02    0.81914E-04   -0.30271E-04  3295   0.672E-02
   2 F= -.43293255E+02 E0= -.43293255E+02  d E =0.873265E-01
       N       E                     dE             d eps       ncg     rms          rms(c)
DAV:   1    -0.434511595972E+02   -0.15782E+00   -0.17292E+00  3185   0.549E+00
DAV:   2    -0.434560475827E+02   -0.48880E-02   -0.48880E-02  3560   0.923E-01
DAV:   3    -0.434560840192E+02   -0.36436E-04   -0.36436E-04  3430   0.109E-01    0.158E+00
DAV:   4    -0.434189351837E+02    0.37149E-01   -0.17758E-02  2825   0.484E-01    0.774E-01
DAV:   5    -0.434006578758E+02    0.18277E-01   -0.26709E-02  3185   0.604E-01    0.249E-01
DAV:   6    -0.434006395809E+02    0.18295E-04   -0.14151E-03  3380   0.183E-01    0.100E-01
DAV:   7    -0.434005647125E+02    0.74868E-04   -0.12216E-04  2205   0.453E-02
   3 F= -.43400565E+02 E0= -.43400565E+02  d E =-.199831E-01
