 vasp.5.4.1 05Feb16 (build Feb 24 2020 14:33:01) complex                        
  
 executed on           IFC91_ompi date 2020.02.28  00:11:17
 running on   40 total cores
 distrk:  each k-point on   40 cores,    1 groups
 distr:  one band on NCORES_PER_BAND=   8 cores,    5 groups


--------------------------------------------------------------------------------------------------------


 INCAR:
 POTCAR:    PAW_PBE Si 05Jan2001                  
 POTCAR:    PAW_PBE Si 05Jan2001                  
   VRHFIN =Si: s2p2                                                             
   LEXCH  = PE                                                                  
   EATOM  =   103.0669 eV,    7.5752 Ry                                         
                                                                                
   TITEL  = PAW_PBE Si 05Jan2001                                                
   LULTRA =        F    use ultrasoft PP ?                                      
   IUNSCR =        1    unscreen: 0-lin 1-nonlin 2-no                           
   RPACOR =    1.500    partial core radius                                     
   POMASS =   28.085; ZVAL   =    4.000    mass and valenz                      
   RCORE  =    1.900    outmost cutoff radius                                   
   RWIGS  =    2.480; RWIGS  =    1.312    wigner-seitz radius (au A)           
   ENMAX  =  245.345; ENMIN  =  184.009 eV                                      
   ICORE  =        2    local potential                                         
   LCOR   =        T    correct aug charges                                     
   LPAW   =        T    paw PP                                                  
   EAUG   =  322.069                                                            
   DEXC   =    0.000                                                            
   RMAX   =    1.950    core radius for proj-oper                               
   RAUG   =    1.300    factor for augmentation sphere                          
   RDEP   =    1.993    radius for radial grids                                 
   RDEPT  =    1.837    core radius for aug-charge                              
                                                                                
   Atomic configuration                                                         
    6 entries                                                                   
     n  l   j            E        occ.                                          
     1  0  0.50     -1785.8828   2.0000                                         
     2  0  0.50      -139.4969   2.0000                                         
     2  1  1.50       -95.5546   6.0000                                         
     3  0  0.50       -10.8127   2.0000                                         
     3  1  0.50        -4.0811   2.0000                                         
     3  2  1.50        -4.0817   0.0000                                         
   Description                                                                  
     l       E           TYP  RCUT    TYP  RCUT                                 
     0    -10.8127223     23  1.900                                             
     0     -7.6451159     23  1.900                                             
     1     -4.0811372     23  1.900                                             
     1      2.4879257     23  1.900                                             
     2     -4.0817478      7  1.900                                             
  local pseudopotential read in
  partial core-charges read in
  partial kinetic energy density read in
  atomic valenz-charges read in
  non local Contribution for L=           0  read in
    real space projection operators read in
  non local Contribution for L=           0  read in
    real space projection operators read in
  non local Contribution for L=           1  read in
    real space projection operators read in
  non local Contribution for L=           1  read in
    real space projection operators read in
    PAW grid and wavefunctions read in
 
   number of l-projection  operators is LMAX  =           4
   number of lm-projection operators is LMMAX =           8
 
  PAW_PBE Si 05Jan2001                  :
 energy of atom  1       EATOM= -103.0669
 kinetic energy error for atom=    0.0001 (will be added to EATOM!!)
 
 
 POSCAR: Si dia                                  
  positions in direct lattice
  No initial velocities read in
 exchange correlation table for  LEXCH =        8
   RHO(1)=    0.500       N(1)  =     2000
   RHO(2)=  100.500       N(2)  =     4000
 


--------------------------------------------------------------------------------------------------------


 ion  position               nearest neighbor table
   1  0.000  0.000  0.000-   5 2.35   6 2.35   7 2.35   8 2.35
   2  0.000  0.500  0.500-   5 2.35   6 2.35   7 2.35   8 2.35
   3  0.500  0.000  0.500-   5 2.35   6 2.35   7 2.35   8 2.35
   4  0.500  0.500  0.000-   5 2.35   6 2.35   7 2.35   8 2.35
   5  0.250  0.250  0.250-   1 2.35   2 2.35   3 2.35   4 2.35
   6  0.750  0.750  0.250-   1 2.35   2 2.35   3 2.35   4 2.35
   7  0.750  0.250  0.750-   1 2.35   2 2.35   3 2.35   4 2.35
   8  0.250  0.750  0.750-   1 2.35   2 2.35   3 2.35   4 2.35
 
  LATTYP: Found a simple cubic cell.
 ALAT       =     5.4310000000
  
  Lattice vectors:
  
 A1 = (   5.4310000000,   0.0000000000,   0.0000000000)
 A2 = (   0.0000000000,   5.4310000000,   0.0000000000)
 A3 = (   0.0000000000,   0.0000000000,   5.4310000000)


Analysis of symmetry for initial positions (statically):
=====================================================================
 Subroutine PRICEL returns following result:
 
  LATTYP: Found a face centered cubic cell.
 ALAT       =     5.4310000000
  
  Lattice vectors:
  
 A1 = (   2.7155000000,   2.7155000000,   0.0000000000)
 A2 = (   2.7155000000,   0.0000000000,  -2.7155000000)
 A3 = (   0.0000000000,   2.7155000000,  -2.7155000000)
 
   4 primitive cells build up your supercell.
 

 Routine SETGRP: Setting up the symmetry group for a 
 simple cubic supercell.


 Subroutine GETGRP returns: Found 48 space group operations
 (whereof 24 operations were pure point group operations)
 out of a pool of 48 trial point group operations.


The static configuration has the point symmetry T_d .
 The point group associated with its full space group is O_h .


Analysis of symmetry for dynamics (positions and initial velocities):
=====================================================================
 Subroutine PRICEL returns following result:
 
  LATTYP: Found a face centered cubic cell.
 ALAT       =     5.4310000000
  
  Lattice vectors:
  
 A1 = (   2.7155000000,   2.7155000000,   0.0000000000)
 A2 = (   2.7155000000,   0.0000000000,  -2.7155000000)
 A3 = (   0.0000000000,   2.7155000000,  -2.7155000000)
 
   4 primitive cells build up your supercell.
 

 Routine SETGRP: Setting up the symmetry group for a 
 simple cubic supercell.


 Subroutine GETGRP returns: Found 48 space group operations
 (whereof 24 operations were pure point group operations)
 out of a pool of 48 trial point group operations.


The dynamic configuration has the point symmetry T_d .
 The point group associated with its full space group is O_h .


 Subroutine INISYM returns: Found 48 space group operations
 (whereof 24 operations are pure point group operations),
 and found     4 'primitive' translations

 
 
 KPOINTS: k-points                                

Automatic generation of k-mesh.
Space group operators:
 irot       det(A)        alpha          n_x          n_y          n_z        tau_x        tau_y        tau_z
    1     1.000000     0.000001     1.000000     0.000000     0.000000     0.000000     0.000000     0.000000
    2     1.000000   120.000000    -0.577350    -0.577350    -0.577350     0.000000     0.000000     0.000000
    3     1.000000   120.000000     0.577350     0.577350     0.577350     0.000000     0.000000     0.000000
    4    -1.000000    90.000000     0.000000     0.000000    -1.000000     0.000000     0.000000     0.000000
    5    -1.000000   180.000000     0.000000     0.707107     0.707107     0.000000     0.000000     0.000000
    6    -1.000000    90.000000     0.000000     1.000000     0.000000     0.000000     0.000000     0.000000
    7     1.000000   180.000000     0.000000     0.000000     1.000000     0.000000     0.000000     0.000000
    8     1.000000   120.000000    -0.577350     0.577350     0.577350     0.000000     0.000000     0.000000
    9     1.000000   120.000000    -0.577350     0.577350    -0.577350     0.000000     0.000000     0.000000
   10    -1.000000    90.000000     0.000000     0.000000     1.000000     0.000000     0.000000     0.000000
   11    -1.000000    90.000000    -1.000000     0.000000     0.000000     0.000000     0.000000     0.000000
   12    -1.000000   180.000000     0.707107     0.000000     0.707107     0.000000     0.000000     0.000000
   13     1.000000   120.000000     0.577350    -0.577350     0.577350     0.000000     0.000000     0.000000
   14     1.000000   120.000000    -0.577350    -0.577350     0.577350     0.000000     0.000000     0.000000
   15     1.000000   180.000000     1.000000     0.000000     0.000000     0.000000     0.000000     0.000000
   16    -1.000000    90.000000     0.000000    -1.000000     0.000000     0.000000     0.000000     0.000000
   17    -1.000000   180.000000     0.707107     0.707107     0.000000     0.000000     0.000000     0.000000
   18    -1.000000    90.000000     1.000000     0.000000     0.000000     0.000000     0.000000     0.000000
   19     1.000000   120.000000     0.577350    -0.577350    -0.577350     0.000000     0.000000     0.000000
   20     1.000000   180.000000     0.000000     1.000000     0.000000     0.000000     0.000000     0.000000
   21     1.000000   120.000000     0.577350     0.577350    -0.577350     0.000000     0.000000     0.000000
   22    -1.000000   180.000000     0.000000    -0.707107     0.707107     0.000000     0.000000     0.000000
   23    -1.000000   180.000000     0.707107    -0.707107     0.000000     0.000000     0.000000     0.000000
   24    -1.000000   180.000000     0.707107     0.000000    -0.707107     0.000000     0.000000     0.000000
   25    -1.000000     0.000001     1.000000     0.000000     0.000000     0.750000     0.750000    -0.750000
   26    -1.000000   120.000000    -0.577350    -0.577350    -0.577350     0.750000     0.750000    -0.750000
   27    -1.000000   120.000000     0.577350     0.577350     0.577350     0.750000     0.750000    -0.750000
   28     1.000000    90.000000     0.000000     0.000000    -1.000000     0.750000     0.750000    -0.750000
   29     1.000000   180.000000     0.000000     0.707107     0.707107     0.750000     0.750000    -0.750000
   30     1.000000    90.000000     0.000000     1.000000     0.000000     0.750000     0.750000    -0.750000
   31    -1.000000   180.000000     0.000000     0.000000     1.000000     0.750000     0.750000    -0.750000
   32    -1.000000   120.000000    -0.577350     0.577350     0.577350     0.750000     0.750000    -0.750000
   33    -1.000000   120.000000    -0.577350     0.577350    -0.577350     0.750000     0.750000    -0.750000
   34     1.000000    90.000000     0.000000     0.000000     1.000000     0.750000     0.750000    -0.750000
   35     1.000000    90.000000    -1.000000     0.000000     0.000000     0.750000     0.750000    -0.750000
   36     1.000000   180.000000     0.707107     0.000000     0.707107     0.750000     0.750000    -0.750000
   37    -1.000000   120.000000     0.577350    -0.577350     0.577350     0.750000     0.750000    -0.750000
   38    -1.000000   120.000000    -0.577350    -0.577350     0.577350     0.750000     0.750000    -0.750000
   39    -1.000000   180.000000     1.000000     0.000000     0.000000     0.750000     0.750000    -0.750000
   40     1.000000    90.000000     0.000000    -1.000000     0.000000     0.750000     0.750000    -0.750000
   41     1.000000   180.000000     0.707107     0.707107     0.000000     0.750000     0.750000    -0.750000
   42     1.000000    90.000000     1.000000     0.000000     0.000000     0.750000     0.750000    -0.750000
   43    -1.000000   120.000000     0.577350    -0.577350    -0.577350     0.750000     0.750000    -0.750000
   44    -1.000000   180.000000     0.000000     1.000000     0.000000     0.750000     0.750000    -0.750000
   45    -1.000000   120.000000     0.577350     0.577350    -0.577350     0.750000     0.750000    -0.750000
   46     1.000000   180.000000     0.000000    -0.707107     0.707107     0.750000     0.750000    -0.750000
   47     1.000000   180.000000     0.707107    -0.707107     0.000000     0.750000     0.750000    -0.750000
   48     1.000000   180.000000     0.707107     0.000000    -0.707107     0.750000     0.750000    -0.750000
 
 Subroutine IBZKPT returns following result:
 ===========================================
 
 Found     56 irreducible k-points:
 
 Following reciprocal coordinates:
            Coordinates               Weight
  0.000000  0.000000  0.000000      1.000000
  0.090909  0.000000  0.000000      6.000000
  0.181818  0.000000  0.000000      6.000000
  0.272727  0.000000  0.000000      6.000000
  0.363636  0.000000  0.000000      6.000000
  0.454545  0.000000  0.000000      6.000000
  0.090909  0.090909  0.000000     12.000000
  0.181818  0.090909  0.000000     24.000000
  0.272727  0.090909  0.000000     24.000000
  0.363636  0.090909  0.000000     24.000000
  0.454545  0.090909  0.000000     24.000000
  0.181818  0.181818  0.000000     12.000000
  0.272727  0.181818  0.000000     24.000000
  0.363636  0.181818  0.000000     24.000000
  0.454545  0.181818  0.000000     24.000000
  0.272727  0.272727  0.000000     12.000000
  0.363636  0.272727  0.000000     24.000000
  0.454545  0.272727  0.000000     24.000000
  0.363636  0.363636  0.000000     12.000000
  0.454545  0.363636  0.000000     24.000000
  0.454545  0.454545  0.000000     12.000000
  0.090909  0.090909  0.090909      8.000000
  0.181818  0.090909  0.090909     24.000000
  0.272727  0.090909  0.090909     24.000000
  0.363636  0.090909  0.090909     24.000000
  0.454545  0.090909  0.090909     24.000000
  0.181818  0.181818  0.090909     24.000000
  0.272727  0.181818  0.090909     48.000000
  0.363636  0.181818  0.090909     48.000000
  0.454545  0.181818  0.090909     48.000000
  0.272727  0.272727  0.090909     24.000000
  0.363636  0.272727  0.090909     48.000000
  0.454545  0.272727  0.090909     48.000000
  0.363636  0.363636  0.090909     24.000000
  0.454545  0.363636  0.090909     48.000000
  0.454545  0.454545  0.090909     24.000000
  0.181818  0.181818  0.181818      8.000000
  0.272727  0.181818  0.181818     24.000000
  0.363636  0.181818  0.181818     24.000000
  0.454545  0.181818  0.181818     24.000000
  0.272727  0.272727  0.181818     24.000000
  0.363636  0.272727  0.181818     48.000000
  0.454545  0.272727  0.181818     48.000000
  0.363636  0.363636  0.181818     24.000000
  0.454545  0.363636  0.181818     48.000000
  0.454545  0.454545  0.181818     24.000000
  0.272727  0.272727  0.272727      8.000000
  0.363636  0.272727  0.272727     24.000000
  0.454545  0.272727  0.272727     24.000000
  0.363636  0.363636  0.272727     24.000000
  0.454545  0.363636  0.272727     48.000000
  0.454545  0.454545  0.272727     24.000000
  0.363636  0.363636  0.363636      8.000000
  0.454545  0.363636  0.363636     24.000000
  0.454545  0.454545  0.363636     24.000000
  0.454545  0.454545  0.454545      8.000000
 
 Following cartesian coordinates:
            Coordinates               Weight
  0.000000  0.000000  0.000000      1.000000
  0.090909  0.000000  0.000000      6.000000
  0.181818  0.000000  0.000000      6.000000
  0.272727  0.000000  0.000000      6.000000
  0.363636  0.000000  0.000000      6.000000
  0.454545  0.000000  0.000000      6.000000
  0.090909  0.090909  0.000000     12.000000
  0.181818  0.090909  0.000000     24.000000
  0.272727  0.090909  0.000000     24.000000
  0.363636  0.090909  0.000000     24.000000
  0.454545  0.090909  0.000000     24.000000
  0.181818  0.181818  0.000000     12.000000
  0.272727  0.181818  0.000000     24.000000
  0.363636  0.181818  0.000000     24.000000
  0.454545  0.181818  0.000000     24.000000
  0.272727  0.272727  0.000000     12.000000
  0.363636  0.272727  0.000000     24.000000
  0.454545  0.272727  0.000000     24.000000
  0.363636  0.363636  0.000000     12.000000
  0.454545  0.363636  0.000000     24.000000
  0.454545  0.454545  0.000000     12.000000
  0.090909  0.090909  0.090909      8.000000
  0.181818  0.090909  0.090909     24.000000
  0.272727  0.090909  0.090909     24.000000
  0.363636  0.090909  0.090909     24.000000
  0.454545  0.090909  0.090909     24.000000
  0.181818  0.181818  0.090909     24.000000
  0.272727  0.181818  0.090909     48.000000
  0.363636  0.181818  0.090909     48.000000
  0.454545  0.181818  0.090909     48.000000
  0.272727  0.272727  0.090909     24.000000
  0.363636  0.272727  0.090909     48.000000
  0.454545  0.272727  0.090909     48.000000
  0.363636  0.363636  0.090909     24.000000
  0.454545  0.363636  0.090909     48.000000
  0.454545  0.454545  0.090909     24.000000
  0.181818  0.181818  0.181818      8.000000
  0.272727  0.181818  0.181818     24.000000
  0.363636  0.181818  0.181818     24.000000
  0.454545  0.181818  0.181818     24.000000
  0.272727  0.272727  0.181818     24.000000
  0.363636  0.272727  0.181818     48.000000
  0.454545  0.272727  0.181818     48.000000
  0.363636  0.363636  0.181818     24.000000
  0.454545  0.363636  0.181818     48.000000
  0.454545  0.454545  0.181818     24.000000
  0.272727  0.272727  0.272727      8.000000
  0.363636  0.272727  0.272727     24.000000
  0.454545  0.272727  0.272727     24.000000
  0.363636  0.363636  0.272727     24.000000
  0.454545  0.363636  0.272727     48.000000
  0.454545  0.454545  0.272727     24.000000
  0.363636  0.363636  0.363636      8.000000
  0.454545  0.363636  0.363636     24.000000
  0.454545  0.454545  0.363636     24.000000
  0.454545  0.454545  0.454545      8.000000
 


--------------------------------------------------------------------------------------------------------




 Dimension of arrays:
   k-points           NKPTS =     56   k-points in BZ     NKDIM =     56   number of bands    NBANDS=     25
   number of dos      NEDOS =    301   number of ions     NIONS =      8
   non local maximal  LDIM  =      4   non local SUM 2l+1 LMDIM =      8
   total plane-waves  NPLWV = 175616
   max r-space proj   IRMAX =      1   max aug-charges    IRDMAX=  36850
   dimension x,y,z NGX =    56 NGY =   56 NGZ =   56
   dimension x,y,z NGXF=   112 NGYF=  112 NGZF=  112
   support grid    NGXF=   112 NGYF=  112 NGZF=  112
   ions per type =               8
 NGX,Y,Z   is equivalent  to a cutoff of  17.14, 17.14, 17.14 a.u.
 NGXF,Y,Z  is equivalent  to a cutoff of  34.28, 34.28, 34.28 a.u.


 I would recommend the setting:
   dimension x,y,z NGX =    56 NGY =   56 NGZ =   56
 SYSTEM =  diamond Si                              
 POSCAR =  Si dia                                  

 Startparameter for this run:
   NWRITE =      2    write-flag & timer
   PREC   = accura    normal or accurate (medium, high low for compatibility)
   ISTART =      0    job   : 0-new  1-cont  2-samecut
   ICHARG =      2    charge: 1-file 2-atom 10-const
   ISPIN  =      1    spin polarized calculation?
   LNONCOLLINEAR =      F non collinear calculations
   LSORBIT =      F    spin-orbit coupling
   INIWAV =      1    electr: 0-lowe 1-rand  2-diag
   LASPH  =      F    aspherical Exc in radial PAW
   METAGGA=      F    non-selfconsistent MetaGGA calc.

 Electronic Relaxation 1
   ENCUT  = 1000.0 eV  73.50 Ry    8.57 a.u.  14.00 14.00 14.00*2*pi/ulx,y,z
   ENINI  = 1000.0     initial cutoff
   ENAUG  =  322.1 eV  augmentation charge cutoff
   NELM   =     60;   NELMIN=  0; NELMDL=  3     # of ELM steps 
   EDIFF  = 0.1E-03   stopping-criterion for ELM
   LREAL  =      F    real-space projection
   NLSPLINE    = F    spline interpolate recip. space projectors
   LCOMPAT=      F    compatible to vasp.4.4
   GGA_COMPAT  = T    GGA compatible to vasp.4.4-vasp.4.6
   LMAXPAW     = -100 max onsite density
   LMAXMIX     =    2 max onsite mixed and CHGCAR
   VOSKOWN=      0    Vosko Wilk Nusair interpolation
   ROPT   =    0.00000
 Ionic relaxation
   EDIFFG = -.1E-01   stopping-criterion for IOM
   NSW    =      9    number of steps for IOM
   NBLOCK =      1;   KBLOCK =      9    inner block; outer block 
   IBRION =      2    ionic relax: 0-MD 1-quasi-New 2-CG
   NFREE  =      1    steps in history (QN), initial steepest desc. (CG)
   ISIF   =      3    stress and relaxation
   IWAVPR =     11    prediction:  0-non 1-charg 2-wave 3-comb
   ISYM   =      2    0-nonsym 1-usesym 2-fastsym
   LCORR  =      T    Harris-Foulkes like correction to forces

   POTIM  = 1.0000    time-step for ionic-motion
   TEIN   =    0.0    initial temperature
   TEBEG  =    0.0;   TEEND  =   0.0 temperature during run
   SMASS  =  -3.00    Nose mass-parameter (am)
   estimated Nose-frequenzy (Omega)   =  0.10E-29 period in steps =****** mass=  -0.674E-27a.u.
   SCALEE = 1.0000    scale energy and forces
   NPACO  =    256;   APACO  = 16.0  distance and # of slots for P.C.
   PSTRESS=    0.0 pullay stress

  Mass of Ions in am
   POMASS =  28.09
  Ionic Valenz
   ZVAL   =   4.00
  Atomic Wigner-Seitz radii
   RWIGS  =  -1.00
  virtual crystal weights 
   VCA    =   1.00
   NELECT =      32.0000    total number of electrons
   NUPDOWN=      -1.0000    fix difference up-down

 DOS related values:
   EMIN   =  10.00;   EMAX   =-10.00  energy-range for DOS
   EFERMI =   0.00
   ISMEAR =     0;   SIGMA  =   0.10  broadening in eV -4-tet -1-fermi 0-gaus

 Electronic relaxation 2 (details)
   IALGO  =     38    algorithm
   LDIAG  =      T    sub-space diagonalisation (order eigenvalues)
   LSUBROT=      F    optimize rotation matrix (better conditioning)
   TURBO    =      0    0=normal 1=particle mesh
   IRESTART =      0    0=no restart 2=restart with 2 vectors
   NREBOOT  =      0    no. of reboots
   NMIN     =      0    reboot dimension
   EREF     =   0.00    reference energy to select bands
   IMIX   =      4    mixing-type and parameters
     AMIX     =   0.40;   BMIX     =  1.00
     AMIX_MAG =   1.60;   BMIX_MAG =  1.00
     AMIN     =   0.10
     WC   =   100.;   INIMIX=   1;  MIXPRE=   1;  MAXMIX= -45

 Intra band minimization:
   WEIMIN = 0.0010     energy-eigenvalue tresh-hold
   EBREAK =  0.10E-05  absolut break condition
   DEPER  =   0.30     relativ break condition  

   TIME   =   0.40     timestep for ELM

  volume/ion in A,a.u.               =      20.02       135.13
  Fermi-wavevector in a.u.,A,eV,Ry     =   0.956999  1.808467 12.460868  0.915848
  Thomas-Fermi vector in A             =   2.085978
 
 Write flags
   LWAVE  =      T    write WAVECAR
   LCHARG =      T    write CHGCAR
   LVTOT  =      F    write LOCPOT, total local potential
   LVHAR  =      F    write LOCPOT, Hartree potential only
   LELF   =      F    write electronic localiz. function (ELF)
   LORBIT =      0    0 simple, 1 ext, 2 COOP (PROOUT)


 Dipole corrections
   LMONO  =      F    monopole corrections only (constant potential shift)
   LDIPOL =      F    correct potential (dipole corrections)
   IDIPOL =      0    1-x, 2-y, 3-z, 4-all directions 
   EPSILON=  1.0000000 bulk dielectric constant

 Exchange correlation treatment:
   GGA     =    --    GGA type
   LEXCH   =     8    internal setting for exchange type
   VOSKOWN=      0    Vosko Wilk Nusair interpolation
   LHFCALC =     F    Hartree Fock is set to
   LHFONE  =     F    Hartree Fock one center treatment
   AEXX    =    0.0000 exact exchange contribution

 Linear response parameters
   LEPSILON=     F    determine dielectric tensor
   LRPA    =     F    only Hartree local field effects (RPA)
   LNABLA  =     F    use nabla operator in PAW spheres
   LVEL    =     F    velocity operator in full k-point grid
   LINTERFAST=   F  fast interpolation
   KINTER  =     0    interpolate to denser k-point grid
   CSHIFT  =0.1000    complex shift for real part using Kramers Kronig
   OMEGAMAX=  -1.0    maximum frequency
   DEG_THRESHOLD= 0.2000000E-02 threshold for treating states as degnerate
   RTIME   =    0.100 relaxation time in fs

 Orbital magnetization related:
   ORBITALMAG=     F  switch on orbital magnetization
   LCHIMAG   =     F  perturbation theory with respect to B field
   DQ        =  0.001000  dq finite difference perturbation B field



--------------------------------------------------------------------------------------------------------


 conjugate gradient relaxation of ions
 charge density and potential will be updated during run
 non-spin polarized calculation
 Variant of blocked Davidson
 Davidson routine will perform the subspace rotation
 perform sub-space diagonalisation
    after iterative eigenvector-optimisation
 modified Broyden-mixing scheme, WC =      100.0
 initial mixing is a Kerker type mixing with AMIX =  0.4000 and BMIX =      1.0000
 Hartree-type preconditioning will be used
 using additional bands            9
 reciprocal scheme for non local part
 use partial core corrections
 calculate Harris-corrections to forces 
   (improved forces if not selfconsistent)
 use gradient corrections 
 use of overlap-Matrix (Vanderbilt PP)
 Gauss-broadening in eV      SIGMA  =   0.10


--------------------------------------------------------------------------------------------------------


  energy-cutoff  :     1000.00
  volume of cell :      160.19
      direct lattice vectors                 reciprocal lattice vectors
     5.431000000  0.000000000  0.000000000     0.184128153  0.000000000  0.000000000
     0.000000000  5.431000000  0.000000000     0.000000000  0.184128153  0.000000000
     0.000000000  0.000000000  5.431000000     0.000000000  0.000000000  0.184128153

  length of vectors
     5.431000000  5.431000000  5.431000000     0.184128153  0.184128153  0.184128153


 
 k-points in units of 2pi/SCALE and weight: k-points                                
   0.00000000  0.00000000  0.00000000       0.001
   0.09090909  0.00000000  0.00000000       0.005
   0.18181818  0.00000000  0.00000000       0.005
   0.27272727  0.00000000  0.00000000       0.005
   0.36363636  0.00000000  0.00000000       0.005
   0.45454545  0.00000000  0.00000000       0.005
   0.09090909  0.09090909  0.00000000       0.009
   0.18181818  0.09090909  0.00000000       0.018
   0.27272727  0.09090909  0.00000000       0.018
   0.36363636  0.09090909  0.00000000       0.018
   0.45454545  0.09090909  0.00000000       0.018
   0.18181818  0.18181818  0.00000000       0.009
   0.27272727  0.18181818  0.00000000       0.018
   0.36363636  0.18181818  0.00000000       0.018
   0.45454545  0.18181818  0.00000000       0.018
   0.27272727  0.27272727  0.00000000       0.009
   0.36363636  0.27272727  0.00000000       0.018
   0.45454545  0.27272727  0.00000000       0.018
   0.36363636  0.36363636  0.00000000       0.009
   0.45454545  0.36363636  0.00000000       0.018
   0.45454545  0.45454545  0.00000000       0.009
   0.09090909  0.09090909  0.09090909       0.006
   0.18181818  0.09090909  0.09090909       0.018
   0.27272727  0.09090909  0.09090909       0.018
   0.36363636  0.09090909  0.09090909       0.018
   0.45454545  0.09090909  0.09090909       0.018
   0.18181818  0.18181818  0.09090909       0.018
   0.27272727  0.18181818  0.09090909       0.036
   0.36363636  0.18181818  0.09090909       0.036
   0.45454545  0.18181818  0.09090909       0.036
   0.27272727  0.27272727  0.09090909       0.018
   0.36363636  0.27272727  0.09090909       0.036
   0.45454545  0.27272727  0.09090909       0.036
   0.36363636  0.36363636  0.09090909       0.018
   0.45454545  0.36363636  0.09090909       0.036
   0.45454545  0.45454545  0.09090909       0.018
   0.18181818  0.18181818  0.18181818       0.006
   0.27272727  0.18181818  0.18181818       0.018
   0.36363636  0.18181818  0.18181818       0.018
   0.45454545  0.18181818  0.18181818       0.018
   0.27272727  0.27272727  0.18181818       0.018
   0.36363636  0.27272727  0.18181818       0.036
   0.45454545  0.27272727  0.18181818       0.036
   0.36363636  0.36363636  0.18181818       0.018
   0.45454545  0.36363636  0.18181818       0.036
   0.45454545  0.45454545  0.18181818       0.018
   0.27272727  0.27272727  0.27272727       0.006
   0.36363636  0.27272727  0.27272727       0.018
   0.45454545  0.27272727  0.27272727       0.018
   0.36363636  0.36363636  0.27272727       0.018
   0.45454545  0.36363636  0.27272727       0.036
   0.45454545  0.45454545  0.27272727       0.018
   0.36363636  0.36363636  0.36363636       0.006
   0.45454545  0.36363636  0.36363636       0.018
   0.45454545  0.45454545  0.36363636       0.018
   0.45454545  0.45454545  0.45454545       0.006
 
 k-points in reciprocal lattice and weights: k-points                                
   0.00000000  0.00000000  0.00000000       0.001
   0.09090909  0.00000000  0.00000000       0.005
   0.18181818  0.00000000  0.00000000       0.005
   0.27272727  0.00000000  0.00000000       0.005
   0.36363636  0.00000000  0.00000000       0.005
   0.45454545  0.00000000  0.00000000       0.005
   0.09090909  0.09090909  0.00000000       0.009
   0.18181818  0.09090909  0.00000000       0.018
   0.27272727  0.09090909  0.00000000       0.018
   0.36363636  0.09090909  0.00000000       0.018
   0.45454545  0.09090909  0.00000000       0.018
   0.18181818  0.18181818  0.00000000       0.009
   0.27272727  0.18181818  0.00000000       0.018
   0.36363636  0.18181818  0.00000000       0.018
   0.45454545  0.18181818  0.00000000       0.018
   0.27272727  0.27272727  0.00000000       0.009
   0.36363636  0.27272727  0.00000000       0.018
   0.45454545  0.27272727  0.00000000       0.018
   0.36363636  0.36363636  0.00000000       0.009
   0.45454545  0.36363636  0.00000000       0.018
   0.45454545  0.45454545  0.00000000       0.009
   0.09090909  0.09090909  0.09090909       0.006
   0.18181818  0.09090909  0.09090909       0.018
   0.27272727  0.09090909  0.09090909       0.018
   0.36363636  0.09090909  0.09090909       0.018
   0.45454545  0.09090909  0.09090909       0.018
   0.18181818  0.18181818  0.09090909       0.018
   0.27272727  0.18181818  0.09090909       0.036
   0.36363636  0.18181818  0.09090909       0.036
   0.45454545  0.18181818  0.09090909       0.036
   0.27272727  0.27272727  0.09090909       0.018
   0.36363636  0.27272727  0.09090909       0.036
   0.45454545  0.27272727  0.09090909       0.036
   0.36363636  0.36363636  0.09090909       0.018
   0.45454545  0.36363636  0.09090909       0.036
   0.45454545  0.45454545  0.09090909       0.018
   0.18181818  0.18181818  0.18181818       0.006
   0.27272727  0.18181818  0.18181818       0.018
   0.36363636  0.18181818  0.18181818       0.018
   0.45454545  0.18181818  0.18181818       0.018
   0.27272727  0.27272727  0.18181818       0.018
   0.36363636  0.27272727  0.18181818       0.036
   0.45454545  0.27272727  0.18181818       0.036
   0.36363636  0.36363636  0.18181818       0.018
   0.45454545  0.36363636  0.18181818       0.036
   0.45454545  0.45454545  0.18181818       0.018
   0.27272727  0.27272727  0.27272727       0.006
   0.36363636  0.27272727  0.27272727       0.018
   0.45454545  0.27272727  0.27272727       0.018
   0.36363636  0.36363636  0.27272727       0.018
   0.45454545  0.36363636  0.27272727       0.036
   0.45454545  0.45454545  0.27272727       0.018
   0.36363636  0.36363636  0.36363636       0.006
   0.45454545  0.36363636  0.36363636       0.018
   0.45454545  0.45454545  0.36363636       0.018
   0.45454545  0.45454545  0.45454545       0.006
 
 position of ions in fractional coordinates (direct lattice) 
   0.00000000  0.00000000  0.00000000
   0.00000000  0.50000000  0.50000000
   0.50000000  0.00000000  0.50000000
   0.50000000  0.50000000  0.00000000
   0.25000000  0.25000000  0.25000000
   0.75000000  0.75000000  0.25000000
   0.75000000  0.25000000  0.75000000
   0.25000000  0.75000000  0.75000000
 
 position of ions in cartesian coordinates  (Angst):
   0.00000000  0.00000000  0.00000000
   0.00000000  2.71550000  2.71550000
   2.71550000  0.00000000  2.71550000
   2.71550000  2.71550000  0.00000000
   1.35775000  1.35775000  1.35775000
   4.07325000  4.07325000  1.35775000
   4.07325000  1.35775000  4.07325000
   1.35775000  4.07325000  4.07325000
 


--------------------------------------------------------------------------------------------------------


 k-point  1 :   0.0000 0.0000 0.0000  plane waves:   11513
 k-point  2 :   0.0909 0.0000 0.0000  plane waves:   11488
 k-point  3 :   0.1818 0.0000 0.0000  plane waves:   11460
 k-point  4 :   0.2727 0.0000 0.0000  plane waves:   11492
 k-point  5 :   0.3636 0.0000 0.0000  plane waves:   11476
 k-point  6 :   0.4545 0.0000 0.0000  plane waves:   11456
 k-point  7 :   0.0909 0.0909 0.0000  plane waves:   11471
 k-point  8 :   0.1818 0.0909 0.0000  plane waves:   11476
 k-point  9 :   0.2727 0.0909 0.0000  plane waves:   11492
 k-point 10 :   0.3636 0.0909 0.0000  plane waves:   11489
 k-point 11 :   0.4545 0.0909 0.0000  plane waves:   11484
 k-point 12 :   0.1818 0.1818 0.0000  plane waves:   11484
 k-point 13 :   0.2727 0.1818 0.0000  plane waves:   11473
 k-point 14 :   0.3636 0.1818 0.0000  plane waves:   11505
 k-point 15 :   0.4545 0.1818 0.0000  plane waves:   11492
 k-point 16 :   0.2727 0.2727 0.0000  plane waves:   11474
 k-point 17 :   0.3636 0.2727 0.0000  plane waves:   11474
 k-point 18 :   0.4545 0.2727 0.0000  plane waves:   11495
 k-point 19 :   0.3636 0.3636 0.0000  plane waves:   11518
 k-point 20 :   0.4545 0.3636 0.0000  plane waves:   11520
 k-point 21 :   0.4545 0.4545 0.0000  plane waves:   11506
 k-point 22 :   0.0909 0.0909 0.0909  plane waves:   11452
 k-point 23 :   0.1818 0.0909 0.0909  plane waves:   11477
 k-point 24 :   0.2727 0.0909 0.0909  plane waves:   11495
 k-point 25 :   0.3636 0.0909 0.0909  plane waves:   11493
 k-point 26 :   0.4545 0.0909 0.0909  plane waves:   11494
 k-point 27 :   0.1818 0.1818 0.0909  plane waves:   11497
 k-point 28 :   0.2727 0.1818 0.0909  plane waves:   11480
 k-point 29 :   0.3636 0.1818 0.0909  plane waves:   11517
 k-point 30 :   0.4545 0.1818 0.0909  plane waves:   11513
 k-point 31 :   0.2727 0.2727 0.0909  plane waves:   11504
 k-point 32 :   0.3636 0.2727 0.0909  plane waves:   11499
 k-point 33 :   0.4545 0.2727 0.0909  plane waves:   11499
 k-point 34 :   0.3636 0.3636 0.0909  plane waves:   11506
 k-point 35 :   0.4545 0.3636 0.0909  plane waves:   11516
 k-point 36 :   0.4545 0.4545 0.0909  plane waves:   11509
 k-point 37 :   0.1818 0.1818 0.1818  plane waves:   11500
 k-point 38 :   0.2727 0.1818 0.1818  plane waves:   11495
 k-point 39 :   0.3636 0.1818 0.1818  plane waves:   11497
 k-point 40 :   0.4545 0.1818 0.1818  plane waves:   11518
 k-point 41 :   0.2727 0.2727 0.1818  plane waves:   11503
 k-point 42 :   0.3636 0.2727 0.1818  plane waves:   11507
 k-point 43 :   0.4545 0.2727 0.1818  plane waves:   11526
 k-point 44 :   0.3636 0.3636 0.1818  plane waves:   11493
 k-point 45 :   0.4545 0.3636 0.1818  plane waves:   11512
 k-point 46 :   0.4545 0.4545 0.1818  plane waves:   11519
 k-point 47 :   0.2727 0.2727 0.2727  plane waves:   11518
 k-point 48 :   0.3636 0.2727 0.2727  plane waves:   11515
 k-point 49 :   0.4545 0.2727 0.2727  plane waves:   11536
 k-point 50 :   0.3636 0.3636 0.2727  plane waves:   11521
 k-point 51 :   0.4545 0.3636 0.2727  plane waves:   11518
 k-point 52 :   0.4545 0.4545 0.2727  plane waves:   11502
 k-point 53 :   0.3636 0.3636 0.3636  plane waves:   11524
 k-point 54 :   0.4545 0.3636 0.3636  plane waves:   11509
 k-point 55 :   0.4545 0.4545 0.3636  plane waves:   11511
 k-point 56 :   0.4545 0.4545 0.4545  plane waves:   11539

 maximum and minimum number of plane-waves per node :      1467     1411

 maximum number of plane-waves:     11539
 maximum index in each direction: 
   IXMAX=   14   IYMAX=   14   IZMAX=   14
   IXMIN=  -14   IYMIN=  -14   IZMIN=  -14

 WARNING: aliasing errors must be expected set NGX to  58 to avoid them
 WARNING: aliasing errors must be expected set NGY to  58 to avoid them
 WARNING: aliasing errors must be expected set NGZ to  58 to avoid them
 aliasing errors are usually negligible using standard VASP settings
 and one can safely disregard these warnings

 total amount of memory used by VASP on root node    46337. kBytes
========================================================================

   base      :      30000. kBytes
   nonl-proj :       5363. kBytes
   fftplans  :       1860. kBytes
   grid      :       2593. kBytes
   one-center:          3. kBytes
   wavefun   :       6518. kBytes
 
     INWAV:  cpu time    0.0000: real time    0.0000
 Broyden mixing: mesh for mixing (old mesh)
   NGX = 29   NGY = 29   NGZ = 29
  (NGX  =112   NGY  =112   NGZ  =112)
  gives a total of  24389 points

 initial charge density was supplied:
 charge density of overlapping atoms calculated
 number of electron      32.0000000 magnetization 
 keeping initial charge density in first step


--------------------------------------------------------------------------------------------------------


 Maximum index for augmentation-charges          920 (set IRDMAX)


--------------------------------------------------------------------------------------------------------


 First call to EWALD:  gamma=   0.326
 Maximum number of real-space cells 3x 3x 3
 Maximum number of reciprocal cells 3x 3x 3

 FEWALD executed in parallel
    FEWALD:  cpu time    0.0013: real time    0.0018


----------------------------------------- Iteration    1(   1)  ---------------------------------------


    POTLOK:  cpu time    0.0349: real time    0.1978
    SETDIJ:  cpu time    0.0026: real time    0.0026
     EDDAV:  cpu time    1.9710: real time    2.0560
       DOS:  cpu time    0.0010: real time    0.0010
    --------------------------------------------
      LOOP:  cpu time    2.0107: real time    2.2603

 eigenvalue-minimisations  :  2800
 total energy-change (2. order) : 0.1018229E+03  (-0.1811734E+04)
 number of electron      32.0000000 magnetization 
 augmentation part       32.0000000 magnetization 

 Free energy of the ion-electron system (eV)
  ---------------------------------------------------
  alpha Z        PSCENC =        13.44915721
  Ewald energy   TEWEN  =      -914.08579262
  -Hartree energ DENC   =       -44.03749844
  -exchange      EXHF   =         0.00000000
  -V(xc)+E(xc)   XCENC  =       -74.41615891
  PAW double counting   =       704.99039692     -564.24414232
  entropy T*S    EENTRO =        -0.01365325
  eigenvalues    EBANDS =       155.64624034
  atomic energy  EATOM  =       824.53437104
  Solvation  Ediel_sol  =         0.00000000
  ---------------------------------------------------
  free energy    TOTEN  =       101.82291996 eV

  energy without entropy =      101.83657322  energy(sigma->0) =      101.82974659


--------------------------------------------------------------------------------------------------------




----------------------------------------- Iteration    1(   2)  ---------------------------------------


     EDDAV:  cpu time    2.1439: real time    2.2728
       DOS:  cpu time    0.0010: real time    0.0010
    --------------------------------------------
      LOOP:  cpu time    2.1458: real time    2.2946

 eigenvalue-minimisations  :  3485
 total energy-change (2. order) :-0.1386076E+03  (-0.1334737E+03)
 number of electron      32.0000000 magnetization 
 augmentation part       32.0000000 magnetization 

 Free energy of the ion-electron system (eV)
  ---------------------------------------------------
  alpha Z        PSCENC =        13.44915721
  Ewald energy   TEWEN  =      -914.08579262
  -Hartree energ DENC   =       -44.03749844
  -exchange      EXHF   =         0.00000000
  -V(xc)+E(xc)   XCENC  =       -74.41615891
  PAW double counting   =       704.99039692     -564.24414232
  entropy T*S    EENTRO =        -0.00062740
  eigenvalues    EBANDS =        17.02559869
  atomic energy  EATOM  =       824.53437104
  Solvation  Ediel_sol  =         0.00000000
  ---------------------------------------------------
  free energy    TOTEN  =       -36.78469584 eV

  energy without entropy =      -36.78406843  energy(sigma->0) =      -36.78438213


--------------------------------------------------------------------------------------------------------




----------------------------------------- Iteration    1(   3)  ---------------------------------------


     EDDAV:  cpu time    2.1294: real time    2.1688
       DOS:  cpu time    0.0008: real time    0.0008
    CHARGE:  cpu time    0.1185: real time    0.1265
    MIXING:  cpu time    0.0020: real time    0.0020
    --------------------------------------------
      LOOP:  cpu time    2.2512: real time    2.3021

 eigenvalue-minimisations  :  3715
 total energy-change (2. order) :-0.7216376E+01  (-0.7137268E+01)
 number of electron      32.0000000 magnetization 
 augmentation part       -1.8724291 magnetization 

 Broyden mixing:
  rms(total) = 0.10631E+01    rms(broyden)= 0.10631E+01
  rms(prec ) = 0.14116E+01
  weight for this iteration     100.00

 Free energy of the ion-electron system (eV)
  ---------------------------------------------------
  alpha Z        PSCENC =        13.44915721
  Ewald energy   TEWEN  =      -914.08579262
  -Hartree energ DENC   =       -44.03749844
  -exchange      EXHF   =         0.00000000
  -V(xc)+E(xc)   XCENC  =       -74.41615891
  PAW double counting   =       704.99039692     -564.24414232
  entropy T*S    EENTRO =        -0.00000000
  eigenvalues    EBANDS =         9.80859578
  atomic energy  EATOM  =       824.53437104
  Solvation  Ediel_sol  =         0.00000000
  ---------------------------------------------------
  free energy    TOTEN  =       -44.00107134 eV

  energy without entropy =      -44.00107134  energy(sigma->0) =      -44.00107134


--------------------------------------------------------------------------------------------------------




----------------------------------------- Iteration    1(   4)  ---------------------------------------


    POTLOK:  cpu time    0.0188: real time    0.0203
    SETDIJ:  cpu time    0.0021: real time    0.0021
     EDDAV:  cpu time    2.0982: real time    2.1045
       DOS:  cpu time    0.0009: real time    0.0009
    CHARGE:  cpu time    0.1172: real time    0.1175
    MIXING:  cpu time    0.0013: real time    0.0015
    --------------------------------------------
      LOOP:  cpu time    2.2390: real time    2.2499

 eigenvalue-minimisations  :  3705
 total energy-change (2. order) : 0.3912695E+00  (-0.1063438E+00)
 number of electron      32.0000000 magnetization 
 augmentation part       -1.8596003 magnetization 

 Broyden mixing:
  rms(total) = 0.57174E+00    rms(broyden)= 0.57174E+00
  rms(prec ) = 0.80170E+00
  weight for this iteration     100.00

 eigenvalues of (default mixing * dielectric matrix)
  average eigenvalue GAMMA=   2.1076
  2.1076

 Free energy of the ion-electron system (eV)
  ---------------------------------------------------
  alpha Z        PSCENC =        13.44915721
  Ewald energy   TEWEN  =      -914.08579262
  -Hartree energ DENC   =       -49.86528127
  -exchange      EXHF   =         0.00000000
  -V(xc)+E(xc)   XCENC  =       -73.47775505
  PAW double counting   =      1646.04914836    -1505.73543009
  entropy T*S    EENTRO =        -0.00000000
  eigenvalues    EBANDS =        15.52178058
  atomic energy  EATOM  =       824.53437104
  Solvation  Ediel_sol  =         0.00000000
  ---------------------------------------------------
  free energy    TOTEN  =       -43.60980183 eV

  energy without entropy =      -43.60980183  energy(sigma->0) =      -43.60980183


--------------------------------------------------------------------------------------------------------




----------------------------------------- Iteration    1(   5)  ---------------------------------------


    POTLOK:  cpu time    0.0190: real time    0.0206
    SETDIJ:  cpu time    0.0021: real time    0.0021
     EDDAV:  cpu time    1.9310: real time    1.9368
       DOS:  cpu time    0.0010: real time    0.0010
    CHARGE:  cpu time    0.1174: real time    0.1178
    MIXING:  cpu time    0.0012: real time    0.0012
    --------------------------------------------
      LOOP:  cpu time    2.0723: real time    2.0827

 eigenvalue-minimisations  :  3355
 total energy-change (2. order) : 0.2376613E+00  (-0.4422406E-01)
 number of electron      32.0000000 magnetization 
 augmentation part       -1.8335939 magnetization 

 Broyden mixing:
  rms(total) = 0.61864E-01    rms(broyden)= 0.61864E-01
  rms(prec ) = 0.83749E-01
  weight for this iteration     100.00

 eigenvalues of (default mixing * dielectric matrix)
  average eigenvalue GAMMA=   1.7323
  0.9849  2.4798

 Free energy of the ion-electron system (eV)
  ---------------------------------------------------
  alpha Z        PSCENC =        13.44915721
  Ewald energy   TEWEN  =      -914.08579262
  -Hartree energ DENC   =       -58.94909178
  -exchange      EXHF   =         0.00000000
  -V(xc)+E(xc)   XCENC  =       -72.03003084
  PAW double counting   =      3343.89756536    -3204.11938958
  entropy T*S    EENTRO =        -0.00000019
  eigenvalues    EBANDS =        23.93107091
  atomic energy  EATOM  =       824.53437104
  Solvation  Ediel_sol  =         0.00000000
  ---------------------------------------------------
  free energy    TOTEN  =       -43.37214049 eV

  energy without entropy =      -43.37214030  energy(sigma->0) =      -43.37214039


--------------------------------------------------------------------------------------------------------




----------------------------------------- Iteration    1(   6)  ---------------------------------------


    POTLOK:  cpu time    0.0186: real time    0.0216
    SETDIJ:  cpu time    0.0021: real time    0.0021
     EDDAV:  cpu time    2.1021: real time    2.1080
       DOS:  cpu time    0.0010: real time    0.0010
    CHARGE:  cpu time    0.1185: real time    0.1189
    MIXING:  cpu time    0.0013: real time    0.0013
    --------------------------------------------
      LOOP:  cpu time    2.2441: real time    2.2572

 eigenvalue-minimisations  :  3750
 total energy-change (2. order) :-0.5906054E-02  (-0.2032528E-02)
 number of electron      32.0000000 magnetization 
 augmentation part       -1.8331343 magnetization 

 Broyden mixing:
  rms(total) = 0.24053E-01    rms(broyden)= 0.24053E-01
  rms(prec ) = 0.36034E-01
  weight for this iteration     100.00

 eigenvalues of (default mixing * dielectric matrix)
  average eigenvalue GAMMA=   2.0314
  0.9173  2.6672  2.5097

 Free energy of the ion-electron system (eV)
  ---------------------------------------------------
  alpha Z        PSCENC =        13.44915721
  Ewald energy   TEWEN  =      -914.08579262
  -Hartree energ DENC   =       -59.65613282
  -exchange      EXHF   =         0.00000000
  -V(xc)+E(xc)   XCENC  =       -71.89638994
  PAW double counting   =      3527.39907365    -3387.61479608
  entropy T*S    EENTRO =        -0.00000021
  eigenvalues    EBANDS =        24.49246323
  atomic energy  EATOM  =       824.53437104
  Solvation  Ediel_sol  =         0.00000000
  ---------------------------------------------------
  free energy    TOTEN  =       -43.37804654 eV

  energy without entropy =      -43.37804633  energy(sigma->0) =      -43.37804643


--------------------------------------------------------------------------------------------------------




----------------------------------------- Iteration    1(   7)  ---------------------------------------


    POTLOK:  cpu time    0.0192: real time    0.0192
    SETDIJ:  cpu time    0.0021: real time    0.0021
     EDDAV:  cpu time    1.9186: real time    1.9251
       DOS:  cpu time    0.0009: real time    0.0009
    CHARGE:  cpu time    0.1169: real time    0.1172
    MIXING:  cpu time    0.0012: real time    0.0012
    --------------------------------------------
      LOOP:  cpu time    2.0593: real time    2.0695

 eigenvalue-minimisations  :  3170
 total energy-change (2. order) :-0.2543680E-02  (-0.5183386E-03)
 number of electron      32.0000000 magnetization 
 augmentation part       -1.8357998 magnetization 

 Broyden mixing:
  rms(total) = 0.89726E-02    rms(broyden)= 0.89726E-02
  rms(prec ) = 0.11604E-01
  weight for this iteration     100.00

 eigenvalues of (default mixing * dielectric matrix)
  average eigenvalue GAMMA=   1.7559
  2.6711  2.3609  0.9959  0.9959

 Free energy of the ion-electron system (eV)
  ---------------------------------------------------
  alpha Z        PSCENC =        13.44915721
  Ewald energy   TEWEN  =      -914.08579262
  -Hartree energ DENC   =       -59.51964554
  -exchange      EXHF   =         0.00000000
  -V(xc)+E(xc)   XCENC  =       -71.88601248
  PAW double counting   =      3501.95369106    -3362.08711523
  entropy T*S    EENTRO =        -0.00000012
  eigenvalues    EBANDS =        24.26075646
  atomic energy  EATOM  =       824.53437104
  Solvation  Ediel_sol  =         0.00000000
  ---------------------------------------------------
  free energy    TOTEN  =       -43.38059022 eV

  energy without entropy =      -43.38059010  energy(sigma->0) =      -43.38059016


--------------------------------------------------------------------------------------------------------




----------------------------------------- Iteration    1(   8)  ---------------------------------------


    POTLOK:  cpu time    0.0190: real time    0.0191
    SETDIJ:  cpu time    0.0020: real time    0.0020
     EDDAV:  cpu time    1.8455: real time    1.8511
       DOS:  cpu time    0.0010: real time    0.0010
    --------------------------------------------
      LOOP:  cpu time    1.8679: real time    1.8778

 eigenvalue-minimisations  :  2970
 total energy-change (2. order) : 0.8615659E-05  (-0.1534921E-04)
 number of electron      32.0000000 magnetization 
 augmentation part       -1.8357998 magnetization 

 Free energy of the ion-electron system (eV)
  ---------------------------------------------------
  alpha Z        PSCENC =        13.44915721
  Ewald energy   TEWEN  =      -914.08579262
  -Hartree energ DENC   =       -59.64006020
  -exchange      EXHF   =         0.00000000
  -V(xc)+E(xc)   XCENC  =       -71.87157141
  PAW double counting   =      3499.27582110    -3359.42065344
  entropy T*S    EENTRO =        -0.00000013
  eigenvalues    EBANDS =        24.37814685
  atomic energy  EATOM  =       824.53437104
  Solvation  Ediel_sol  =         0.00000000
  ---------------------------------------------------
  free energy    TOTEN  =       -43.38058160 eV

  energy without entropy =      -43.38058148  energy(sigma->0) =      -43.38058154


--------------------------------------------------------------------------------------------------------




 average (electrostatic) potential at core
  the test charge radii are     0.9892
  (the norm of the test charge is              1.0000)
       1 -83.2568       2 -83.2568       3 -83.2568       4 -83.2568       5 -83.2568
       6 -83.2568       7 -83.2568       8 -83.2568
 
 
 
 E-fermi :   6.1055     XC(G=0):  -9.4110     alpha+bet :-11.9779


 k-point     1 :       0.0000    0.0000    0.0000
  band No.  band energies     occupation 
      1      -6.1339      2.00000
      2      -1.9901      2.00000
      3      -1.9901      2.00000
      4      -1.9901      2.00000
      5      -1.9901      2.00000
      6      -1.9901      2.00000
      7      -1.9901      2.00000
      8       2.9742      2.00000
      9       2.9742      2.00000
     10       2.9742      2.00000
     11       2.9742      2.00000
     12       2.9742      2.00000
     13       2.9742      2.00000
     14       5.8220      1.99994
     15       5.8220      1.99994
     16       5.8220      1.99994
     17       6.5328      0.00000
     18       6.5328      0.00000
     19       6.5328      0.00000
     20       6.5328      0.00000
     21       6.5328      0.00000
     22       6.5328      0.00000
     23       8.3889      0.00000
     24       8.3889      0.00000
     25       8.3889      0.00000

 k-point     2 :       0.0909    0.0000    0.0000
  band No.  band energies     occupation 
      1      -6.0977      2.00000
      2      -2.6708      2.00000
      3      -1.9782      2.00000
      4      -1.9782      2.00000
      5      -1.9782      2.00000
      6      -1.9782      2.00000
      7      -1.2664      2.00000
      8       2.8699      2.00000
      9       2.8699      2.00000
     10       2.8699      2.00000
     11       2.8699      2.00000
     12       3.0069      2.00000
     13       3.0069      2.00000
     14       5.5880      2.00000
     15       5.6750      2.00000
     16       5.6750      2.00000
     17       6.4189      0.00001
     18       6.7283      0.00000
     19       6.7283      0.00000
     20       6.7283      0.00000
     21       6.7283      0.00000
     22       6.7444      0.00000
     23       8.3011      0.00000
     24       8.5804      0.00000
     25       8.5804      0.00000

 k-point     3 :       0.1818    0.0000    0.0000
  band No.  band energies     occupation 
      1      -5.9893      2.00000
      2      -3.3020      2.00000
      3      -1.9454      2.00000
      4      -1.9454      2.00000
      5      -1.9454      2.00000
      6      -1.9454      2.00000
      7      -0.5070      2.00000
      8       2.6215      2.00000
      9       2.6215      2.00000
     10       2.6215      2.00000
     11       2.6215      2.00000
     12       3.1044      2.00000
     13       3.1044      2.00000
     14       5.0208      2.00000
     15       5.3276      2.00000
     16       5.3276      2.00000
     17       6.3975      0.00004
     18       7.0583      0.00000
     19       7.2518      0.00000
     20       7.2518      0.00000
     21       7.2518      0.00000
     22       7.2518      0.00000
     23       8.0680      0.00000
     24       9.0608      0.00000
     25       9.0608      0.00000

 k-point     4 :       0.2727    0.0000    0.0000
  band No.  band energies     occupation 
      1      -5.8093      2.00000
      2      -3.8783      2.00000
      3      -1.9005      2.00000
      4      -1.9005      2.00000
      5      -1.9005      2.00000
      6      -1.9005      2.00000
      7       0.2797      2.00000
      8       2.3425      2.00000
      9       2.3425      2.00000
     10       2.3425      2.00000
     11       2.3425      2.00000
     12       3.2659      2.00000
     13       3.2659      2.00000
     14       4.3025      2.00000
     15       4.9111      2.00000
     16       4.9111      2.00000
     17       6.4625      0.00000
     18       7.4772      0.00000
     19       7.7540      0.00000
     20       7.9947      0.00000
     21       7.9947      0.00000
     22       7.9947      0.00000
     23       7.9947      0.00000
     24       9.6964      0.00000
     25       9.6967      0.00000

 k-point     5 :       0.3636    0.0000    0.0000
  band No.  band energies     occupation 
      1      -5.5583      2.00000
      2      -4.3953      2.00000
      3      -1.8570      2.00000
      4      -1.8570      2.00000
      5      -1.8570      2.00000
      6      -1.8570      2.00000
      7       1.0849      2.00000
      8       2.1157      2.00000
      9       2.1157      2.00000
     10       2.1157      2.00000
     11       2.1157      2.00000
     12       3.4897      2.00000
     13       3.4897      2.00000
     14       3.5221      2.00000
     15       4.4952      2.00000
     16       4.4952      2.00000
     17       6.6071      0.00000
     18       7.4174      0.00000
     19       8.0004      0.00000
     20       8.8771      0.00000
     21       8.8771      0.00000
     22       8.8771      0.00000
     23       8.8771      0.00000
     24       9.9592      0.00000
     25      10.4151      0.00000

 k-point     6 :       0.4545    0.0000    0.0000
  band No.  band energies     occupation 
      1      -5.2378      2.00000
      2      -4.8494      2.00000
      3      -1.8300      2.00000
      4      -1.8300      2.00000
      5      -1.8300      2.00000
      6      -1.8300      2.00000
      7       1.8998      2.00000
      8       1.9903      2.00000
      9       1.9903      2.00000
     10       1.9903      2.00000
     11       1.9903      2.00000
     12       2.7157      2.00000
     13       3.7729      2.00000
     14       3.7729      2.00000
     15       4.1108      2.00000
     16       4.1108      2.00000
     17       6.8229      0.00000
     18       7.0985      0.00000
     19       8.6188      0.00000
     20       9.3035      0.00000
     21       9.8106      0.00000
     22       9.8106      0.00000
     23       9.8106      0.00000
     24       9.8106      0.00000
     25      11.1402      0.00000

 k-point     7 :       0.0909    0.0909    0.0000
  band No.  band energies     occupation 
      1      -6.0616      2.00000
      2      -2.6518      2.00000
      3      -2.6518      2.00000
      4      -2.0235      2.00000
      5      -1.9119      2.00000
      6      -1.2646      2.00000
      7      -1.2646      2.00000
      8       2.5624      2.00000
      9       2.8872      2.00000
     10       2.8872      2.00000
     11       2.9222      2.00000
     12       2.9222      2.00000
     13       3.0321      2.00000
     14       5.1918      2.00000
     15       5.5279      2.00000
     16       5.7895      1.99999
     17       6.5996      0.00000
     18       6.6230      0.00000
     19       6.6230      0.00000
     20       6.9293      0.00000
     21       6.9293      0.00000
     22       7.1868      0.00000
     23       8.4632      0.00000
     24       8.5264      0.00000
     25       8.6062      0.00000

 k-point     8 :       0.1818    0.0909    0.0000
  band No.  band energies     occupation 
      1      -5.9535      2.00000
      2      -3.2780      2.00000
      3      -2.5969      2.00000
      4      -2.0562      2.00000
      5      -1.8219      2.00000
      6      -1.2632      2.00000
      7      -0.5199      2.00000
      8       2.2235      2.00000
      9       2.6016      2.00000
     10       2.7233      2.00000
     11       2.9731      2.00000
     12       2.9858      2.00000
     13       3.0450      2.00000
     14       4.6160      2.00000
     15       5.1794      2.00000
     16       5.5867      2.00000
     17       6.6081      0.00000
     18       6.8602      0.00000
     19       7.1630      0.00000
     20       7.2310      0.00000
     21       7.4316      0.00000
     22       7.8687      0.00000
     23       8.2637      0.00000
     24       8.8768      0.00000
     25       8.9855      0.00000

 k-point     9 :       0.2727    0.0909    0.0000
  band No.  band energies     occupation 
      1      -5.7739      2.00000
      2      -3.8506      2.00000
      3      -2.5124      2.00000
      4      -2.0892      2.00000
      5      -1.7115      2.00000
      6      -1.2725      2.00000
      7       0.2456      2.00000
      8       1.9372      2.00000
      9       2.2724      2.00000
     10       2.5118      2.00000
     11       2.7961      2.00000
     12       3.1261      2.00000
     13       3.2385      2.00000
     14       3.9692      2.00000
     15       4.7614      2.00000
     16       5.1681      2.00000
     17       6.6774      0.00000
     18       7.4443      0.00000
     19       7.6365      0.00000
     20       7.9197      0.00000
     21       7.9577      0.00000
     22       8.1548      0.00000
     23       8.6981      0.00000
     24       9.3837      0.00000
     25       9.6296      0.00000

 k-point    10 :       0.3636    0.0909    0.0000
  band No.  band energies     occupation 
      1      -5.5237      2.00000
      2      -4.3650      2.00000
      3      -2.4095      2.00000
      4      -2.1368      2.00000
      5      -1.5899      2.00000
      6      -1.3060      2.00000
      7       1.0202      2.00000
      8       1.7543      2.00000
      9       1.9827      2.00000
     10       2.3655      2.00000
     11       2.5747      2.00000
     12       3.2762      2.00000
     13       3.3440      2.00000
     14       3.5028      2.00000
     15       4.3443      2.00000
     16       4.6917      2.00000
     17       6.8242      0.00000
     18       7.6275      0.00000
     19       8.1454      0.00000
     20       8.2412      0.00000
     21       8.8133      0.00000
     22       9.0183      0.00000
     23       9.6220      0.00000
     24       9.8540      0.00000
     25      10.3818      0.00000

 k-point    11 :       0.4545    0.0909    0.0000
  band No.  band energies     occupation 
      1      -5.2042      2.00000
      2      -4.8172      2.00000
      3      -2.3028      2.00000
      4      -2.2083      2.00000
      5      -1.4715      2.00000
      6      -1.3728      2.00000
      7       1.7011      2.00000
      8       1.7820      2.00000
      9       1.7915      2.00000
     10       2.3262      2.00000
     11       2.4025      2.00000
     12       2.5472      2.00000
     13       3.6236      2.00000
     14       3.8370      2.00000
     15       3.9599      2.00000
     16       4.2372      2.00000
     17       7.0398      0.00000
     18       7.3131      0.00000
     19       8.7486      0.00000
     20       9.1610      0.00000
     21       9.4097      0.00000
     22       9.7842      0.00000
     23       9.8128      0.00000
     24      10.4351      0.00000
     25      10.5205      0.00000

 k-point    12 :       0.1818    0.1818    0.0000
  band No.  band energies     occupation 
      1      -5.8463      2.00000
      2      -3.2073      2.00000
      3      -3.2073      2.00000
      4      -2.1668      2.00000
      5      -1.6776      2.00000
      6      -0.5625      2.00000
      7      -0.5625      2.00000
      8       1.8767      2.00000
      9       2.6602      2.00000
     10       2.6602      2.00000
     11       2.9105      2.00000
     12       2.9105      2.00000
     13       3.2031      2.00000
     14       4.0345      2.00000
     15       4.8277      2.00000
     16       5.6795      2.00000
     17       6.7976      0.00000
     18       7.1594      0.00000
     19       7.1594      0.00000
     20       7.7074      0.00000
     21       7.7074      0.00000
     22       8.6373      0.00000
     23       8.6858      0.00000
     24       8.7832      0.00000
     25       8.8553      0.00000

 k-point    13 :       0.2727    0.1818    0.0000
  band No.  band energies     occupation 
      1      -5.6681      2.00000
      2      -3.7687      2.00000
      3      -3.0945      2.00000
      4      -2.2907      2.00000
      5      -1.5101      2.00000
      6      -0.6437      2.00000
      7       0.1424      2.00000
      8       1.6332      2.00000
      9       2.2946      2.00000
     10       2.7857      2.00000
     11       2.7936      2.00000
     12       3.1859      2.00000
     13       3.2122      2.00000
     14       3.4238      2.00000
     15       4.4060      2.00000
     16       5.4442      2.00000
     17       7.1188      0.00000
     18       7.2353      0.00000
     19       7.9243      0.00000
     20       8.0830      0.00000
     21       8.4049      0.00000
     22       8.4711      0.00000
     23       9.0155      0.00000
     24       9.4512      0.00000
     25       9.5131      0.00000

 k-point    14 :       0.3636    0.1818    0.0000
  band No.  band energies     occupation 
      1      -5.4202      2.00000
      2      -4.2749      2.00000
      3      -2.9476      2.00000
      4      -2.4366      2.00000
      5      -1.3230      2.00000
      6      -0.7696      2.00000
      7       0.8377      2.00000
      8       1.5204      2.00000
      9       1.9585      2.00000
     10       2.7338      2.00000
     11       2.8011      2.00000
     12       2.9983      2.00000
     13       3.0774      2.00000
     14       3.5488      2.00000
     15       3.9865      2.00000
     16       5.0013      2.00000
     17       7.3837      0.00000
     18       7.7558      0.00000
     19       8.1616      0.00000
     20       8.5589      0.00000
     21       8.8225      0.00000
     22       9.2391      0.00000
     23       9.4623      0.00000
     24      10.2071      0.00000
     25      10.4474      0.00000

 k-point    15 :       0.4545    0.1818    0.0000
  band No.  band energies     occupation 
      1      -5.1038      2.00000
      2      -4.7211      2.00000
      3      -2.7788      2.00000
      4      -2.6031      2.00000
      5      -1.1262      2.00000
      6      -0.9355      2.00000
      7       1.5132      2.00000
      8       1.5455      2.00000
      9       1.6986      2.00000
     10       2.1663      2.00000
     11       2.7782      2.00000
     12       2.9069      2.00000
     13       3.2699      2.00000
     14       3.6023      2.00000
     15       3.9908      2.00000
     16       4.4896      2.00000
     17       7.5961      0.00000
     18       7.8610      0.00000
     19       8.5954      0.00000
     20       9.1243      0.00000
     21       9.5058      0.00000
     22       9.6782      0.00000
     23       9.8051      0.00000
     24      10.2813      0.00000
     25      10.3923      0.00000

 k-point    16 :       0.2727    0.2727    0.0000
  band No.  band energies     occupation 
      1      -5.4926      2.00000
      2      -3.6355      2.00000
      3      -3.6355      2.00000
      4      -2.5130      2.00000
      5      -1.2885      2.00000
      6      -0.0279      2.00000
      7      -0.0279      2.00000
      8       1.4591      2.00000
      9       2.4024      2.00000
     10       2.4024      2.00000
     11       2.8513      2.00000
     12       3.1643      2.00000
     13       3.1643      2.00000
     14       3.4790      2.00000
     15       3.9806      2.00000
     16       5.4657      2.00000
     17       7.1178      0.00000
     18       8.0027      0.00000
     19       8.0027      0.00000
     20       8.7494      0.00000
     21       8.7494      0.00000
     22       8.8836      0.00000
     23       9.0559      0.00000
     24       9.3046      0.00000
     25      10.4108      0.00000

 k-point    17 :       0.3636    0.2727    0.0000
  band No.  band energies     occupation 
      1      -5.2485      2.00000
      2      -4.1271      2.00000
      3      -3.4570      2.00000
      4      -2.7540      2.00000
      5      -1.0444      2.00000
      6      -0.2532      2.00000
      7       0.5677      2.00000
      8       1.4235      2.00000
      9       2.0333      2.00000
     10       2.2793      2.00000
     11       2.5897      2.00000
     12       3.2080      2.00000
     13       3.5373      2.00000
     14       3.5596      2.00000
     15       3.6357      2.00000
     16       5.1884      2.00000
     17       7.4910      0.00000
     18       8.1480      0.00000
     19       8.8749      0.00000
     20       8.8993      0.00000
     21       9.0453      0.00000
     22       9.1905      0.00000
     23       9.5284      0.00000
     24       9.9934      0.00000
     25      10.1385      0.00000

 k-point    18 :       0.4545    0.2727    0.0000
  band No.  band energies     occupation 
      1      -4.9377      2.00000
      2      -4.5627      2.00000
      3      -3.2418      2.00000
      4      -3.0023      2.00000
      5      -0.7820      2.00000
      6      -0.5123      2.00000
      7       1.1449      2.00000
      8       1.5192      2.00000
      9       1.7122      2.00000
     10       1.7297      2.00000
     11       2.8504      2.00000
     12       3.1771      2.00000
     13       3.3146      2.00000
     14       3.4482      2.00000
     15       4.1702      2.00000
     16       4.7157      2.00000
     17       8.1685      0.00000
     18       8.3513      0.00000
     19       8.6004      0.00000
     20       9.0333      0.00000
     21       9.4168      0.00000
     22       9.7026      0.00000
     23       9.8806      0.00000
     24       9.9586      0.00000
     25      10.3824      0.00000

 k-point    19 :       0.3636    0.3636    0.0000
  band No.  band energies     occupation 
      1      -5.0103      2.00000
      2      -3.9257      2.00000
      3      -3.9257      2.00000
      4      -3.0772      2.00000
      5      -0.7464      2.00000
      6       0.2473      2.00000
      7       0.2473      2.00000
      8       1.4581      2.00000
      9       1.7556      2.00000
     10       2.1980      2.00000
     11       2.1980      2.00000
     12       3.1395      2.00000
     13       3.7563      2.00000
     14       3.7563      2.00000
     15       3.8441      2.00000
     16       5.1371      2.00000
     17       7.5413      0.00000
     18       8.8170      0.00000
     19       9.0365      0.00000
     20       9.0365      0.00000
     21       9.5115      0.00000
     22       9.5115      0.00000
     23       9.5721      0.00000
     24       9.8714      0.00000
     25      10.0204      0.00000

 k-point    20 :       0.4545    0.3636    0.0000
  band No.  band energies     occupation 
      1      -4.7080      2.00000
      2      -4.3449      2.00000
      3      -3.6769      2.00000
      4      -3.3899      2.00000
      5      -0.4273      2.00000
      6      -0.0918      2.00000
      7       0.7424      2.00000
      8       1.2430      2.00000
      9       1.6104      2.00000
     10       1.8634      2.00000
     11       2.4437      2.00000
     12       2.7613      2.00000
     13       3.8790      2.00000
     14       3.9395      2.00000
     15       4.3225      2.00000
     16       4.8206      2.00000
     17       7.9503      0.00000
     18       8.6474      0.00000
     19       8.8549      0.00000
     20       9.1172      0.00000
     21       9.2242      0.00000
     22       9.4457      0.00000
     23      10.0061      0.00000
     24      10.4806      0.00000
     25      10.6398      0.00000

 k-point    21 :       0.4545    0.4545    0.0000
  band No.  band energies     occupation 
      1      -4.4179      2.00000
      2      -4.0720      2.00000
      3      -4.0720      2.00000
      4      -3.7506      2.00000
      5      -0.0546      2.00000
      6       0.3373      2.00000
      7       0.3373      2.00000
      8       0.7820      2.00000
      9       1.8048      2.00000
     10       2.0879      2.00000
     11       2.0879      2.00000
     12       2.3917      2.00000
     13       4.2718      2.00000
     14       4.3843      2.00000
     15       4.3843      2.00000
     16       4.7210      2.00000
     17       8.0289      0.00000
     18       8.4418      0.00000
     19       8.4418      0.00000
     20       8.5001      0.00000
     21      10.1680      0.00000
     22      10.1680      0.00000
     23      10.2320      0.00000
     24      10.5617      0.00000
     25      11.0367      0.00000

 k-point    22 :       0.0909    0.0909    0.0909
  band No.  band energies     occupation 
      1      -6.0256      2.00000
      2      -2.6358      2.00000
      3      -2.6358      2.00000
      4      -2.6358      2.00000
      5      -1.2632      2.00000
      6      -1.2632      2.00000
      7      -1.2632      2.00000
      8       2.6038      2.00000
      9       2.6038      2.00000
     10       2.6038      2.00000
     11       3.0643      2.00000
     12       3.0643      2.00000
     13       3.0643      2.00000
     14       4.8367      2.00000
     15       5.6546      2.00000
     16       5.6546      2.00000
     17       6.6143      0.00000
     18       6.6143      0.00000
     19       6.6143      0.00000
     20       7.2669      0.00000
     21       7.2669      0.00000
     22       7.2669      0.00000
     23       8.4195      0.00000
     24       8.6358      0.00000
     25       8.6358      0.00000

 k-point    23 :       0.1818    0.0909    0.0909
  band No.  band energies     occupation 
      1      -5.9178      2.00000
      2      -3.2554      2.00000
      3      -2.5909      2.00000
      4      -2.5909      2.00000
      5      -1.2616      2.00000
      6      -1.2616      2.00000
      7      -0.5364      2.00000
      8       2.2731      2.00000
      9       2.2731      2.00000
     10       2.7286      2.00000
     11       3.0225      2.00000
     12       3.0225      2.00000
     13       3.1608      2.00000
     14       4.2710      2.00000
     15       5.3286      2.00000
     16       5.5272      2.00000
     17       6.6697      0.00000
     18       6.8914      0.00000
     19       6.8914      0.00000
     20       7.4952      0.00000
     21       7.9286      0.00000
     22       7.9286      0.00000
     23       8.3615      0.00000
     24       8.6865      0.00000
     25       9.0734      0.00000

 k-point    24 :       0.2727    0.0909    0.0909
  band No.  band energies     occupation 
      1      -5.7387      2.00000
      2      -3.8238      2.00000
      3      -2.5272      2.00000
      4      -2.5272      2.00000
      5      -1.2650      2.00000
      6      -1.2650      2.00000
      7       0.2039      2.00000
      8       1.9912      2.00000
      9       1.9912      2.00000
     10       2.8478      2.00000
     11       2.8478      2.00000
     12       2.9382      2.00000
     13       3.3204      2.00000
     14       3.6589      2.00000
     15       4.9301      2.00000
     16       5.1161      2.00000
     17       6.7813      0.00000
     18       7.4782      0.00000
     19       7.4782      0.00000
     20       7.8533      0.00000
     21       8.1046      0.00000
     22       8.7494      0.00000
     23       8.7494      0.00000
     24       9.1335      0.00000
     25       9.6546      0.00000

 k-point    25 :       0.3636    0.0909    0.0909
  band No.  band energies     occupation 
      1      -5.4893      2.00000
      2      -4.3353      2.00000
      3      -2.4627      2.00000
      4      -2.4627      2.00000
      5      -1.2755      2.00000
      6      -1.2755      2.00000
      7       0.9425      2.00000
      8       1.7988      2.00000
      9       1.7988      2.00000
     10       2.6562      2.00000
     11       2.6562      2.00000
     12       3.0220      2.00000
     13       3.2342      2.00000
     14       3.5411      2.00000
     15       4.5269      2.00000
     16       4.5963      2.00000
     17       6.9549      0.00000
     18       7.7854      0.00000
     19       8.2744      0.00000
     20       8.2744      0.00000
     21       8.3282      0.00000
     22       9.6646      0.00000
     23       9.6646      0.00000
     24       9.7019      0.00000
     25      10.3085      0.00000

 k-point    26 :       0.4545    0.0909    0.0909
  band No.  band energies     occupation 
      1      -5.1709      2.00000
      2      -4.7854      2.00000
      3      -2.4210      2.00000
      4      -2.4210      2.00000
      5      -1.2861      2.00000
      6      -1.2861      2.00000
      7       1.6644      2.00000
      8       1.7058      2.00000
      9       1.7058      2.00000
     10       2.3586      2.00000
     11       2.5362      2.00000
     12       2.5362      2.00000
     13       3.6167      2.00000
     14       3.8199      2.00000
     15       4.0785      2.00000
     16       4.1515      2.00000
     17       7.1875      0.00000
     18       7.4699      0.00000
     19       8.9042      0.00000
     20       9.1893      0.00000
     21       9.1893      0.00000
     22       9.5300      0.00000
     23      10.1765      0.00000
     24      10.1767      0.00000
     25      10.7185      0.00000

 k-point    27 :       0.1818    0.1818    0.0909
  band No.  band energies     occupation 
      1      -5.8109      2.00000
      2      -3.1895      2.00000
      3      -3.1895      2.00000
      4      -2.5791      2.00000
      5      -1.2550      2.00000
      6      -0.5890      2.00000
      7      -0.5890      2.00000
      8       1.9464      2.00000
      9       2.4218      2.00000
     10       2.4218      2.00000
     11       3.1336      2.00000
     12       3.1336      2.00000
     13       3.2342      2.00000
     14       3.7095      2.00000
     15       5.0759      2.00000
     16       5.5768      2.00000
     17       6.8383      0.00000
     18       6.9841      0.00000
     19       6.9841      0.00000
     20       8.1084      0.00000
     21       8.1084      0.00000
     22       8.3958      0.00000
     23       8.6865      0.00000
     24       8.8029      0.00000
     25       9.0995      0.00000

 k-point    28 :       0.2727    0.1818    0.0909
  band No.  band energies     occupation 
      1      -5.6333      2.00000
      2      -3.7446      2.00000
      3      -3.0863      2.00000
      4      -2.5794      2.00000
      5      -1.2344      2.00000
      6      -0.6821      2.00000
      7       0.0806      2.00000
      8       1.7231      2.00000
      9       2.1477      2.00000
     10       2.6671      2.00000
     11       3.0071      2.00000
     12       3.1223      2.00000
     13       3.2468      2.00000
     14       3.3222      2.00000
     15       4.6698      2.00000
     16       5.3558      2.00000
     17       7.1362      0.00000
     18       7.1600      0.00000
     19       7.5786      0.00000
     20       8.4079      0.00000
     21       8.4164      0.00000
     22       8.8930      0.00000
     23       8.9045      0.00000
     24       9.5387      0.00000
     25       9.5572      0.00000

 k-point    29 :       0.3636    0.1818    0.0909
  band No.  band energies     occupation 
      1      -5.3863      2.00000
      2      -4.2468      2.00000
      3      -2.9573      2.00000
      4      -2.6147      2.00000
      5      -1.1834      2.00000
      6      -0.8111      2.00000
      7       0.7297      2.00000
      8       1.6240      2.00000
      9       1.9249      2.00000
     10       2.5353      2.00000
     11       2.8995      2.00000
     12       2.9981      2.00000
     13       3.1239      2.00000
     14       3.5954      2.00000
     15       4.2375      2.00000
     16       4.9166      2.00000
     17       7.3434      0.00000
     18       7.7941      0.00000
     19       8.1890      0.00000
     20       8.3724      0.00000
     21       8.8243      0.00000
     22       9.3378      0.00000
     23       9.7873      0.00000
     24      10.1518      0.00000
     25      10.4771      0.00000

 k-point    30 :       0.4545    0.1818    0.0909
  band No.  band energies     occupation 
      1      -5.0712      2.00000
      2      -4.6904      2.00000
      3      -2.8199      2.00000
      4      -2.6979      2.00000
      5      -1.0887      2.00000
      6      -0.9563      2.00000
      7       1.3508      2.00000
      8       1.6422      2.00000
      9       1.7521      2.00000
     10       1.9485      2.00000
     11       2.8864      2.00000
     12       2.9761      2.00000
     13       3.3887      2.00000
     14       3.8074      2.00000
     15       3.9627      2.00000
     16       4.4187      2.00000
     17       7.5986      0.00000
     18       7.8890      0.00000
     19       8.6300      0.00000
     20       9.2623      0.00000
     21       9.3424      0.00000
     22       9.6374      0.00000
     23       9.7796      0.00000
[...]
     20       8.1005      0.00000
     21       9.1407      0.00000
     22       9.3269      0.00000
     23       9.3269      0.00000
     24       9.3334      0.00000
     25      10.6334      0.00000

 k-point    45 :       0.4545    0.3636    0.1818
  band No.  band energies     occupation 
      1      -4.6906      2.00000
      2      -4.3509      2.00000
      3      -3.7643      2.00000
      4      -3.5533      2.00000
      5      -0.9330      2.00000
      6      -0.6985      2.00000
      7      -0.0221      2.00000
      8       0.3904      2.00000
      9       2.1627      2.00000
     10       2.3801      2.00000
     11       3.0027      2.00000
     12       3.4006      2.00000
     13       3.8138      2.00000
     14       3.8579      2.00000
     15       4.1521      2.00000
     16       4.5765      2.00000
     17       7.8520      0.00000
     18       8.1554      0.00000
     19       8.2713      0.00000
     20       8.4652      0.00000
     21       8.9098      0.00000
     22       8.9496      0.00000
     23       8.9761      0.00000
     24       9.7387      0.00000
     25       9.7606      0.00000

 k-point    46 :       0.4545    0.4545    0.1818
  band No.  band energies     occupation 
      1      -4.4224      2.00000
      2      -4.1091      2.00000
      3      -4.1091      2.00000
      4      -3.8364      2.00000
      5      -0.7005      2.00000
      6      -0.3916      2.00000
      7      -0.3916      2.00000
      8      -0.0267      2.00000
      9       2.4236      2.00000
     10       2.7106      2.00000
     11       2.7106      2.00000
     12       3.0529      2.00000
     13       4.1492      2.00000
     14       4.2406      2.00000
     15       4.2406      2.00000
     16       4.5290      2.00000
     17       7.8782      0.00000
     18       8.0962      0.00000
     19       8.1814      0.00000
     20       8.1814      0.00000
     21       9.1665      0.00000
     22       9.1665      0.00000
     23       9.4133      0.00000
     24       9.5013      0.00000
     25       9.8739      0.00000

 k-point    47 :       0.2727    0.2727    0.2727
  band No.  band energies     occupation 
      1      -5.2730      2.00000
      2      -3.6105      2.00000
      3      -3.6105      2.00000
      4      -3.6105      2.00000
      5      -0.7411      2.00000
      6      -0.7411      2.00000
      7      -0.7411      2.00000
      8       1.3302      2.00000
      9       2.2996      2.00000
     10       2.2996      2.00000
     11       2.2996      2.00000
     12       3.5620      2.00000
     13       3.5620      2.00000
     14       3.5620      2.00000
     15       4.7934      2.00000
     16       4.7934      2.00000
     17       7.2935      0.00000
     18       7.2935      0.00000
     19       7.2935      0.00000
     20       7.4881      0.00000
     21       9.1293      0.00000
     22       9.1293      0.00000
     23      10.5113      0.00000
     24      10.5113      0.00000
     25      10.5113      0.00000

 k-point    48 :       0.3636    0.2727    0.2727
  band No.  band energies     occupation 
      1      -5.0451      2.00000
      2      -4.0288      2.00000
      3      -3.5377      2.00000
      4      -3.5377      2.00000
      5      -0.9595      2.00000
      6      -0.9595      2.00000
      7      -0.4089      2.00000
      8       0.8290      2.00000
      9       2.3695      2.00000
     10       2.3695      2.00000
     11       2.9020      2.00000
     12       3.6450      2.00000
     13       3.6450      2.00000
     14       3.7484      2.00000
     15       4.5189      2.00000
     16       4.6470      2.00000
     17       7.5393      0.00000
     18       7.5814      0.00000
     19       7.6244      0.00000
     20       7.6244      0.00000
     21       8.9516      0.00000
     22       9.3774      0.00000
     23       9.9369      0.00000
     24       9.9369      0.00000
     25      10.0041      0.00000

 k-point    49 :       0.4545    0.2727    0.2727
  band No.  band energies     occupation 
      1      -4.7576      2.00000
      2      -4.4159      2.00000
      3      -3.4904      2.00000
      4      -3.4904      2.00000
      5      -1.0869      2.00000
      6      -1.0869      2.00000
      7      -0.0409      2.00000
      8       0.3708      2.00000
      9       2.4229      2.00000
     10       2.4229      2.00000
     11       3.5474      2.00000
     12       3.6514      2.00000
     13       3.6514      2.00000
     14       3.9776      2.00000
     15       4.1670      2.00000
     16       4.2396      2.00000
     17       7.7774      0.00000
     18       7.8262      0.00000
     19       8.2234      0.00000
     20       8.2234      0.00000
     21       8.9131      0.00000
     22       9.0509      0.00000
     23       9.0509      0.00000
     24       9.3187      0.00000
     25       9.7015      0.00000

 k-point    50 :       0.3636    0.3636    0.2727
  band No.  band energies     occupation 
      1      -4.8278      2.00000
      2      -3.8929      2.00000
      3      -3.8929      2.00000
      4      -3.5588      2.00000
      5      -1.1023      2.00000
      6      -0.7354      2.00000
      7      -0.7354      2.00000
      8       0.3518      2.00000
      9       2.5722      2.00000
     10       2.9588      2.00000
     11       2.9588      2.00000
     12       3.8633      2.00000
     13       3.8633      2.00000
     14       3.8765      2.00000
     15       4.2995      2.00000
     16       4.7211      2.00000
     17       7.4902      0.00000
     18       7.6347      0.00000
     19       7.8238      0.00000
     20       7.8238      0.00000
     21       9.0592      0.00000
     22       9.2172      0.00000
     23       9.3498      0.00000
     24       9.3498      0.00000
     25       9.8798      0.00000

 k-point    51 :       0.4545    0.3636    0.2727
  band No.  band energies     occupation 
      1      -4.5568      2.00000
      2      -4.2404      2.00000
      3      -3.7511      2.00000
      4      -3.6314      2.00000
      5      -1.1131      2.00000
      6      -0.9829      2.00000
      7      -0.4384      2.00000
      8      -0.0739      2.00000
      9       2.7592      2.00000
     10       2.9021      2.00000
     11       3.5157      2.00000
     12       3.9463      2.00000
     13       3.9608      2.00000
     14       3.9707      2.00000
     15       4.1581      2.00000
     16       4.5037      2.00000
     17       7.7126      0.00000
     18       7.9184      0.00000
     19       7.9386      0.00000
     20       8.2392      0.00000
     21       8.7608      0.00000
     22       8.9207      0.00000
     23       8.9374      0.00000
     24       9.2045      0.00000
     25       9.4332      0.00000

 k-point    52 :       0.4545    0.4545    0.2727
  band No.  band energies     occupation 
      1      -4.3115      2.00000
      2      -4.0356      2.00000
      3      -4.0356      2.00000
      4      -3.8228      2.00000
      5      -1.0017      2.00000
      6      -0.7680      2.00000
      7      -0.7680      2.00000
      8      -0.4593      2.00000
      9       3.0570      2.00000
     10       3.3170      2.00000
     11       3.3170      2.00000
     12       3.6655      2.00000
     13       4.2168      2.00000
     14       4.2820      2.00000
     15       4.2820      2.00000
     16       4.5206      2.00000
     17       7.7515      0.00000
     18       7.8704      0.00000
     19       7.9721      0.00000
     20       7.9721      0.00000
     21       8.8966      0.00000
     22       8.8966      0.00000
     23       9.1279      0.00000
     24       9.2126      0.00000
     25       9.2593      0.00000

 k-point    53 :       0.3636    0.3636    0.3636
  band No.  band energies     occupation 
      1      -4.6262      2.00000
      2      -3.8185      2.00000
      3      -3.8185      2.00000
      4      -3.8185      2.00000
      5      -1.0095      2.00000
      6      -1.0095      2.00000
      7      -1.0095      2.00000
      8      -0.1018      2.00000
      9       3.2309      2.00000
     10       3.2309      2.00000
     11       3.2309      2.00000
     12       4.0247      2.00000
     13       4.0247      2.00000
     14       4.0247      2.00000
     15       4.5645      2.00000
     16       4.5645      2.00000
     17       7.2286      0.00000
     18       7.7628      0.00000
     19       7.7628      0.00000
     20       7.7628      0.00000
     21       9.0792      0.00000
     22       9.0792      0.00000
     23       9.2281      0.00000
     24       9.2281      0.00000
     25       9.2281      0.00000

 k-point    54 :       0.4545    0.3636    0.3636
  band No.  band energies     occupation 
      1      -4.3800      2.00000
      2      -4.1033      2.00000
      3      -3.7701      2.00000
      4      -3.7701      2.00000
      5      -1.1628      2.00000
      6      -1.1628      2.00000
      7      -0.7997      2.00000
      8      -0.4912      2.00000
      9       3.3698      2.00000
     10       3.3698      2.00000
     11       3.8735      2.00000
     12       4.1259      2.00000
     13       4.1259      2.00000
     14       4.1986      2.00000
     15       4.3843      2.00000
     16       4.3859      2.00000
     17       7.3657      0.00000
     18       7.6822      0.00000
     19       7.8885      0.00000
     20       7.8885      0.00000
     21       8.8615      0.00000
     22       8.8615      0.00000
     23       8.8817      0.00000
     24       8.9211      0.00000
     25       9.2179      0.00000

 k-point    55 :       0.4545    0.4545    0.3636
  band No.  band energies     occupation 
      1      -4.1740      2.00000
      2      -3.9607      2.00000
      3      -3.9607      2.00000
      4      -3.8412      2.00000
      5      -1.1915      2.00000
      6      -1.0626      2.00000
      7      -1.0626      2.00000
      8      -0.8297      2.00000
      9       3.6994      2.00000
     10       3.8821      2.00000
     11       3.8821      2.00000
     12       4.2005      2.00000
     13       4.2976      2.00000
     14       4.3256      2.00000
     15       4.3256      2.00000
     16       4.4954      2.00000
     17       7.3172      0.00000
     18       7.5854      0.00000
     19       7.5854      0.00000
     20       7.6530      0.00000
     21       8.8676      0.00000
     22       8.8676      0.00000
     23       8.9399      0.00000
     24       9.0281      0.00000
     25       9.0325      0.00000

 k-point    56 :       0.4545    0.4545    0.4545
  band No.  band energies     occupation 
      1      -4.0312      2.00000
      2      -3.9119      2.00000
      3      -3.9119      2.00000
      4      -3.9119      2.00000
      5      -1.2251      2.00000
      6      -1.2251      2.00000
      7      -1.2251      2.00000
      8      -1.0966      2.00000
      9       4.2323      2.00000
     10       4.2323      2.00000
     11       4.2323      2.00000
     12       4.3788      2.00000
     13       4.3788      2.00000
     14       4.3788      2.00000
     15       4.4477      2.00000
     16       4.4477      2.00000
     17       7.0934      0.00000
     18       7.2749      0.00000
     19       7.2749      0.00000
     20       7.2749      0.00000
     21       8.9157      0.00000
     22       8.9157      0.00000
     23       8.9157      0.00000
     24       8.9769      0.00000
     25       8.9770      0.00000


--------------------------------------------------------------------------------------------------------


 soft charge-density along one line, spin component           1
         0         1         2         3         4         5         6         7         8         9
 total charge-density along one line
 
 pseudopotential strength for first ion, spin component:           1
 18.438  25.724  -0.000  -0.000   0.000  -0.000  -0.000   0.000
 25.724  35.895  -0.000  -0.000   0.000  -0.000  -0.000   0.000
 -0.000  -0.000   4.181  -0.000   0.000   7.791  -0.000   0.000
 -0.000  -0.000  -0.000   4.181  -0.000  -0.000   7.791  -0.000
  0.000   0.000   0.000  -0.000   4.181   0.000  -0.000   7.791
 -0.000  -0.000   7.791  -0.000   0.000  14.529  -0.000   0.000
 -0.000  -0.000  -0.000   7.791  -0.000  -0.000  14.529  -0.000
  0.000   0.000   0.000  -0.000   7.791   0.000  -0.000  14.529
 total augmentation occupancy for first ion, spin component:           1
  5.527  -2.064   0.000  -0.000   0.000   0.000   0.000   0.000
 -2.064   0.888   0.000  -0.000  -0.000  -0.000   0.000   0.000
 -0.000  -0.000   2.899   0.000   0.000  -0.648   0.000   0.000
  0.000   0.000  -0.000   2.899  -0.000   0.000  -0.648   0.000
 -0.000   0.000   0.000   0.000   2.899   0.000   0.000  -0.648
 -0.000  -0.000  -0.648   0.000   0.000   0.153   0.000  -0.000
  0.000  -0.000   0.000  -0.648   0.000  -0.000   0.153  -0.000
 -0.000   0.000   0.000  -0.000  -0.648   0.000   0.000   0.153


------------------------ aborting loop because EDIFF is reached ----------------------------------------


    CHARGE:  cpu time    0.1181: real time    0.1296
    FORLOC:  cpu time    0.0016: real time    0.0016
    FORNL :  cpu time    0.2321: real time    0.2417
    STRESS:  cpu time    0.5427: real time    0.5443
    FORCOR:  cpu time    0.0198: real time    0.0198
    FORHAR:  cpu time    0.0056: real time    0.0056
    MIXING:  cpu time    0.0010: real time    0.0010
    OFIELD:  cpu time    0.0000: real time    0.0000

  FORCE on cell =-STRESS in cart. coord.  units (eV):
  Direction    XX          YY          ZZ          XY          YZ          ZX
  --------------------------------------------------------------------------------------
  Alpha Z    13.16657    13.16657    13.16657
  Ewald    -302.54660  -302.54660  -302.54660    -0.00000    -0.00000    -0.00000
  Hartree    20.23634    20.23634    20.23634     0.00000    -0.00000    -0.00000
  E(xc)    -100.97730  -100.97730  -100.97730    -0.00000     0.00000     0.00000
  Local    -118.00984  -118.00984  -118.00984    -0.00000    -0.00000     0.00000
  n-local   309.63675   313.11116   306.50138    -2.94194    -2.29366    -1.50587
  augment   -46.59895   -46.59895   -46.59895    -0.00000     0.00000     0.00000
  Kinetic   217.72869   229.52589   227.59885    -3.73591    -5.28117    -2.56045
  Fock        0.00000     0.00000     0.00000     0.00000     0.00000     0.00000
  -------------------------------------------------------------------------------------
  Total      -0.02887    -0.02887    -0.02887     0.00000     0.00000    -0.00000
  in kB      -0.28270    -0.28270    -0.28270     0.00000     0.00000    -0.00000
  external pressure =       -0.28 kB  Pullay stress =        0.00 kB


 VOLUME and BASIS-vectors are now :
 -----------------------------------------------------------------------------
  energy-cutoff  :     1000.00
  volume of cell :      163.63
      direct lattice vectors                 reciprocal lattice vectors
     5.469579894 -0.000000000 -0.000000000     0.182829398  0.000000000 -0.000000000
    -0.000000000  5.469579894 -0.000000000     0.000000000  0.182829398 -0.000000000
     0.000000000  0.000000000  5.469579894     0.000000000  0.000000000  0.182829398

  length of vectors
     5.469579894  5.469579894  5.469579894     0.182829398  0.182829398  0.182829398


 FORCES acting on ions
    electron-ion (+dipol)            ewald-force                    non-local-force                 convergence-correction
 -----------------------------------------------------------------------------------------------
   -.429E-13 -.329E-15 -.781E-14   -.711E-14 -.107E-13 0.355E-14   -.269E-16 -.217E-17 -.234E-16   -.425E-14 -.421E-15 0.808E-15
   -.442E-13 -.153E-13 -.234E-13   -.711E-14 -.107E-13 0.711E-14   0.954E-17 -.737E-17 0.000E+00   -.417E-14 0.729E-15 0.202E-14
   -.578E-13 -.573E-15 -.542E-12   -.711E-14 -.107E-13 0.711E-14   -.408E-16 0.186E-16 0.191E-16   -.111E-14 -.436E-15 0.201E-14
   -.552E-13 -.282E-12 -.236E-12   -.711E-14 -.107E-13 0.355E-14   0.147E-16 -.130E-17 -.269E-16   -.114E-14 0.654E-15 0.850E-15
   0.240E-13 -.119E-12 0.196E-12   0.665E-14 0.984E-14 -.325E-14   0.121E-16 -.104E-16 0.243E-16   0.149E-14 0.337E-15 0.267E-14
   0.136E-13 -.773E-12 0.511E-12   0.727E-14 0.974E-14 -.326E-14   0.382E-16 -.434E-17 0.312E-16   -.287E-14 -.104E-14 0.268E-14
   0.136E-13 0.199E-12 -.476E-12   0.751E-14 0.117E-13 -.384E-14   -.199E-16 -.434E-17 0.781E-17   -.287E-14 0.236E-15 0.301E-14
   0.234E-13 -.256E-12 0.813E-14   0.683E-14 0.116E-13 -.384E-14   0.564E-16 -.113E-16 -.130E-16   0.141E-14 -.110E-14 0.294E-14
 -----------------------------------------------------------------------------------------------
   -.125E-12 -.125E-11 -.569E-12   -.151E-15 0.192E-15 0.712E-14   0.434E-16 -.226E-16 0.191E-16   -.135E-13 -.104E-14 0.170E-13
 
 
 POSITION                                       TOTAL-FORCE (eV/Angst)
 -----------------------------------------------------------------------------------
     -0.00000      0.00000     -0.00000         0.000000     -0.000000      0.000000
     -0.00000      2.73479      2.73479         0.000000     -0.000000      0.000000
      2.73479     -0.00000      2.73479         0.000000      0.000000      0.000000
      2.73479      2.73479     -0.00000         0.000000     -0.000000      0.000000
      1.36739      1.36739      1.36739        -0.000000      0.000000     -0.000000
      4.10218      4.10218      1.36739        -0.000000      0.000000     -0.000000
      4.10218      1.36739      4.10218         0.000000      0.000000     -0.000000
      1.36739      4.10218      4.10218        -0.000000     -0.000000     -0.000000
 -----------------------------------------------------------------------------------
    total drift:                               -0.000000     -0.000000     -0.000000


--------------------------------------------------------------------------------------------------------



  FREE ENERGIE OF THE ION-ELECTRON SYSTEM (eV)
  ---------------------------------------------------
  free  energy   TOTEN  =       -43.40056471 eV

  energy  without entropy=      -43.40056467  energy(sigma->0) =      -43.40056469
 
 d Force = 0.0000000E+00[ 0.000E+00, 0.000E+00]  d Energy = 0.1073096E+00-0.107E+00
 d Force = 0.0000000E+00[ 0.000E+00, 0.000E+00]  d Ewald  = 0.1474774E+02-0.147E+02


--------------------------------------------------------------------------------------------------------


    POTLOK:  cpu time    0.0208: real time    0.0209


--------------------------------------------------------------------------------------------------------




--------------------------------------------------------------------------------------------------------


  
 reached required accuracy - stopping structural energy minimisation
 writing wavefunctions
     LOOP+:  cpu time   15.4527: real time   15.9850
    4ORBIT:  cpu time    0.0000: real time    0.0000

 total amount of memory used by VASP on root node    46337. kBytes
========================================================================

   base      :      30000. kBytes
   nonl-proj :       5363. kBytes
   fftplans  :       1860. kBytes
   grid      :       2593. kBytes
   one-center:          3. kBytes
   wavefun   :       6518. kBytes
 
  
  
 General timing and accounting informations for this job:
 ========================================================
  
                  Total CPU time used (sec):       53.178
                            User time (sec):       52.049
                          System time (sec):        1.130
                         Elapsed time (sec):       56.159
  
                   Maximum memory used (kb):      183440.
                   Average memory used (kb):           0.
  
                          Minor page faults:        54414
                          Major page faults:           56
                 Voluntary context switches:         9792
