<?xml version="1.0" encoding="ISO-8859-1"?>
<modeling>
 <generator>
  <i name="program" type="string">vasp </i>
  <i name="version" type="string">5.4.1  </i>
  <i name="subversion" type="string">05Feb16 (build Feb 24 2020 14:33:01) complex                          parallel </i>
  <i name="platform" type="string">IFC91_ompi </i>
  <i name="date" type="string">2020 02 28 </i>
  <i name="time" type="string">00:11:17 </i>
 </generator>
 <incar>
  <i type="string" name="SYSTEM"> diamond Si</i>
  <i type="int" name="ISTART">     0</i>
  <i type="string" name="PREC">accurate</i>
  <i type="int" name="NSIM">     4</i>
  <i type="int" name="ICHARG">     2</i>
  <i type="int" name="NELM">    60</i>
  <i type="int" name="NELMDL">     3</i>
  <i type="int" name="NELMIN">     0</i>
  <i type="int" name="IBRION">     2</i>
  <i name="EDIFF">      0.00010000</i>
  <i name="EDIFFG">     -0.01000000</i>
  <i type="int" name="NSW">     9</i>
  <i type="int" name="ISIF">     3</i>
  <i name="ENCUT">   1000.00000000</i>
  <i name="POTIM">      1.00000000</i>
  <i type="logical" name="LPLANE"> F  </i>
  <i type="int" name="ISMEAR">     0</i>
  <i name="SIGMA">      0.10000000</i>
  <v type="int" name="KPOINT_BSE">    -1     0     0     0</v>
  <i type="int" name="NELM">    60</i>
 </incar>
 <kpoints>
  <generation param="Monkhorst-Pack">
   <v type="int" name="divisions">      11       11       11 </v>
   <v name="usershift">      0.00000000       0.00000000       0.00000000 </v>
   <v name="genvec1">      0.09090909       0.00000000       0.00000000 </v>
   <v name="genvec2">      0.00000000       0.09090909       0.00000000 </v>
   <v name="genvec3">      0.00000000       0.00000000       0.09090909 </v>
   <v name="shift">      0.00000000       0.00000000       0.00000000 </v>
  </generation>
  <varray name="kpointlist" >
   <v>       0.00000000       0.00000000       0.00000000 </v>
   <v>       0.09090909       0.00000000       0.00000000 </v>
   <v>       0.18181818       0.00000000       0.00000000 </v>
   <v>       0.27272727       0.00000000       0.00000000 </v>
   <v>       0.36363636       0.00000000       0.00000000 </v>
   <v>       0.45454545       0.00000000       0.00000000 </v>
   <v>       0.09090909       0.09090909       0.00000000 </v>
   <v>       0.18181818       0.09090909       0.00000000 </v>
   <v>       0.27272727       0.09090909       0.00000000 </v>
   <v>       0.36363636       0.09090909       0.00000000 </v>
   <v>       0.45454545       0.09090909       0.00000000 </v>
   <v>       0.18181818       0.18181818       0.00000000 </v>
   <v>       0.27272727       0.18181818       0.00000000 </v>
   <v>       0.36363636       0.18181818       0.00000000 </v>
   <v>       0.45454545       0.18181818       0.00000000 </v>
   <v>       0.27272727       0.27272727       0.00000000 </v>
   <v>       0.36363636       0.27272727       0.00000000 </v>
   <v>       0.45454545       0.27272727       0.00000000 </v>
   <v>       0.36363636       0.36363636       0.00000000 </v>
   <v>       0.45454545       0.36363636       0.00000000 </v>
   <v>       0.45454545       0.45454545       0.00000000 </v>
   <v>       0.09090909       0.09090909       0.09090909 </v>
   <v>       0.18181818       0.09090909       0.09090909 </v>
   <v>       0.27272727       0.09090909       0.09090909 </v>
   <v>       0.36363636       0.09090909       0.09090909 </v>
   <v>       0.45454545       0.09090909       0.09090909 </v>
   <v>       0.18181818       0.18181818       0.09090909 </v>
   <v>       0.27272727       0.18181818       0.09090909 </v>
   <v>       0.36363636       0.18181818       0.09090909 </v>
   <v>       0.45454545       0.18181818       0.09090909 </v>
   <v>       0.27272727       0.27272727       0.09090909 </v>
   <v>       0.36363636       0.27272727       0.09090909 </v>
   <v>       0.45454545       0.27272727       0.09090909 </v>
   <v>       0.36363636       0.36363636       0.09090909 </v>
   <v>       0.45454545       0.36363636       0.09090909 </v>
   <v>       0.45454545       0.45454545       0.09090909 </v>
   <v>       0.18181818       0.18181818       0.18181818 </v>
   <v>       0.27272727       0.18181818       0.18181818 </v>
   <v>       0.36363636       0.18181818       0.18181818 </v>
   <v>       0.45454545       0.18181818       0.18181818 </v>
   <v>       0.27272727       0.27272727       0.18181818 </v>
   <v>       0.36363636       0.27272727       0.18181818 </v>
   <v>       0.45454545       0.27272727       0.18181818 </v>
   <v>       0.36363636       0.36363636       0.18181818 </v>
   <v>       0.45454545       0.36363636       0.18181818 </v>
   <v>       0.45454545       0.45454545       0.18181818 </v>
   <v>       0.27272727       0.27272727       0.27272727 </v>
   <v>       0.36363636       0.27272727       0.27272727 </v>
   <v>       0.45454545       0.27272727       0.27272727 </v>
   <v>       0.36363636       0.36363636       0.27272727 </v>
   <v>       0.45454545       0.36363636       0.27272727 </v>
   <v>       0.45454545       0.45454545       0.27272727 </v>
   <v>       0.36363636       0.36363636       0.36363636 </v>
   <v>       0.45454545       0.36363636       0.36363636 </v>
   <v>       0.45454545       0.45454545       0.36363636 </v>
   <v>       0.45454545       0.45454545       0.45454545 </v>
  </varray>
  <varray name="weights" >
   <v>       0.00075131 </v>
   <v>       0.00450789 </v>
   <v>       0.00450789 </v>
   <v>       0.00450789 </v>
   <v>       0.00450789 </v>
   <v>       0.00450789 </v>
   <v>       0.00901578 </v>
   <v>       0.01803156 </v>
   <v>       0.01803156 </v>
   <v>       0.01803156 </v>
   <v>       0.01803156 </v>
   <v>       0.00901578 </v>
   <v>       0.01803156 </v>
   <v>       0.01803156 </v>
   <v>       0.01803156 </v>
   <v>       0.00901578 </v>
   <v>       0.01803156 </v>
   <v>       0.01803156 </v>
   <v>       0.00901578 </v>
   <v>       0.01803156 </v>
   <v>       0.00901578 </v>
   <v>       0.00601052 </v>
   <v>       0.01803156 </v>
   <v>       0.01803156 </v>
   <v>       0.01803156 </v>
   <v>       0.01803156 </v>
   <v>       0.01803156 </v>
   <v>       0.03606311 </v>
   <v>       0.03606311 </v>
   <v>       0.03606311 </v>
   <v>       0.01803156 </v>
   <v>       0.03606311 </v>
   <v>       0.03606311 </v>
   <v>       0.01803156 </v>
   <v>       0.03606311 </v>
   <v>       0.01803156 </v>
   <v>       0.00601052 </v>
   <v>       0.01803156 </v>
   <v>       0.01803156 </v>
   <v>       0.01803156 </v>
   <v>       0.01803156 </v>
   <v>       0.03606311 </v>
   <v>       0.03606311 </v>
   <v>       0.01803156 </v>
   <v>       0.03606311 </v>
   <v>       0.01803156 </v>
   <v>       0.00601052 </v>
   <v>       0.01803156 </v>
   <v>       0.01803156 </v>
   <v>       0.01803156 </v>
   <v>       0.03606311 </v>
   <v>       0.01803156 </v>
   <v>       0.00601052 </v>
   <v>       0.01803156 </v>
   <v>       0.01803156 </v>
   <v>       0.00601052 </v>
  </varray>
 </kpoints>
 <parameters>
  <separator name="general" >
   <i type="string" name="SYSTEM">diamond Si</i>
   <i type="logical" name="LCOMPAT"> F  </i>
  </separator>
  <separator name="electronic" >
   <i type="string" name="PREC">accura</i>
   <i name="ENMAX">   1000.00000000</i>
   <i name="ENAUG">    322.06900000</i>
   <i name="EDIFF">      0.00010000</i>
   <i type="int" name="IALGO">    38</i>
   <i type="int" name="IWAVPR">    11</i>
   <i type="int" name="NBANDS">    25</i>
   <i name="NELECT">     32.00000000</i>
   <i type="int" name="TURBO">     0</i>
   <i type="int" name="IRESTART">     0</i>
   <i type="int" name="NREBOOT">     0</i>
   <i type="int" name="NMIN">     0</i>
   <i name="EREF">      0.00000000</i>
   <separator name="electronic smearing" >
    <i type="int" name="ISMEAR">     0</i>
    <i name="SIGMA">      0.10000000</i>
    <i name="KSPACING">      0.50000000</i>
    <i type="logical" name="KGAMMA"> T  </i>
   </separator>
   <separator name="electronic projectors" >
    <i type="logical" name="LREAL"> F  </i>
    <v name="ROPT">      0.00000000</v>
    <i type="int" name="LMAXPAW">  -100</i>
    <i type="int" name="LMAXMIX">     2</i>
    <i type="logical" name="NLSPLINE"> F  </i>
   </separator>
   <separator name="electronic startup" >
    <i type="int" name="ISTART">     0</i>
    <i type="int" name="ICHARG">     2</i>
    <i type="int" name="INIWAV">     1</i>
   </separator>
   <separator name="electronic spin" >
    <i type="int" name="ISPIN">     1</i>
    <i type="logical" name="LNONCOLLINEAR"> F  </i>
    <v name="MAGMOM">      1.00000000      1.00000000      1.00000000      1.00000000      1.00000000      1.00000000      1.00000000      1.00000000</v>
    <i name="NUPDOWN">     -1.00000000</i>
    <i type="logical" name="LSORBIT"> F  </i>
    <v name="SAXIS">      0.00000000      0.00000000      1.00000000</v>
    <i type="logical" name="LSPIRAL"> F  </i>
    <v name="QSPIRAL">      0.00000000      0.00000000      0.00000000</v>
    <i type="logical" name="LZEROZ"> F  </i>
   </separator>
   <separator name="electronic exchange-correlation" >
    <i type="logical" name="LASPH"> F  </i>
    <i type="logical" name="LMETAGGA"> F  </i>
   </separator>
   <separator name="electronic convergence" >
    <i type="int" name="NELM">    60</i>
    <i type="int" name="NELMDL">     3</i>
    <i type="int" name="NELMIN">     0</i>
    <i name="ENINI">   1000.00000000</i>
    <separator name="electronic convergence detail" >
     <i type="logical" name="LDIAG"> T  </i>
     <i type="logical" name="LSUBROT"> F  </i>
     <i name="WEIMIN">      0.00100000</i>
     <i name="EBREAK">      0.00000100</i>
     <i name="DEPER">      0.30000000</i>
     <i type="int" name="NRMM">     4</i>
     <i name="TIME">      0.40000000</i>
    </separator>
   </separator>
   <separator name="electronic mixer" >
    <i name="AMIX">      0.40000000</i>
    <i name="BMIX">      1.00000000</i>
    <i name="AMIN">      0.10000000</i>
    <i name="AMIX_MAG">      1.60000000</i>
    <i name="BMIX_MAG">      1.00000000</i>
    <separator name="electronic mixer details" >
     <i type="int" name="IMIX">     4</i>
     <i type="logical" name="MIXFIRST"> F  </i>
     <i type="int" name="MAXMIX">   -45</i>
     <i name="WC">    100.00000000</i>
     <i type="int" name="INIMIX">     1</i>
     <i type="int" name="MIXPRE">     1</i>
     <i type="int" name="MREMOVE">     5</i>
    </separator>
   </separator>
   <separator name="electronic dipolcorrection" >
    <i type="logical" name="LDIPOL"> F  </i>
    <i type="logical" name="LMONO"> F  </i>
    <i type="int" name="IDIPOL">     0</i>
    <i name="EPSILON">      1.00000000</i>
    <v name="DIPOL">   -100.00000000   -100.00000000   -100.00000000</v>
    <i name="EFIELD">      0.00000000</i>
   </separator>
  </separator>
  <separator name="grids" >
   <i type="int" name="NGX">    56</i>
   <i type="int" name="NGY">    56</i>
   <i type="int" name="NGZ">    56</i>
   <i type="int" name="NGXF">   112</i>
   <i type="int" name="NGYF">   112</i>
   <i type="int" name="NGZF">   112</i>
   <i type="logical" name="ADDGRID"> F  </i>
  </separator>
  <separator name="ionic" >
   <i type="int" name="NSW">     9</i>
   <i type="int" name="IBRION">     2</i>
   <i type="int" name="ISIF">     3</i>
   <i name="PSTRESS">      0.00000000</i>
   <i name="EDIFFG">     -0.01000000</i>
   <i type="int" name="NFREE">     1</i>
   <i name="POTIM">      1.00000000</i>
   <i name="SMASS">     -3.00000000</i>
   <i name="SCALEE">      1.00000000</i>
  </separator>
  <separator name="ionic md" >
   <i name="TEBEG">      0.00010000</i>
   <i name="TEEND">      0.00010000</i>
   <i type="int" name="NBLOCK">     1</i>
   <i type="int" name="KBLOCK">     9</i>
   <i type="int" name="NPACO">   256</i>
   <i name="APACO">     16.00000000</i>
  </separator>
  <separator name="symmetry" >
   <i type="int" name="ISYM">     2</i>
   <i name="SYMPREC">      0.00001000</i>
  </separator>
  <separator name="dos" >
   <i type="logical" name="LORBIT"> F  </i>
   <v name="RWIGS">     -1.00000000</v>
   <i type="int" name="NEDOS">   301</i>
   <i name="EMIN">     10.00000000</i>
   <i name="EMAX">    -10.00000000</i>
   <i name="EFERMI">      0.00000000</i>
  </separator>
  <separator name="writing" >
   <i type="int" name="NWRITE">     2</i>
   <i type="logical" name="LWAVE"> T  </i>
   <i type="logical" name="LCHARG"> T  </i>
   <i type="logical" name="LPARD"> F  </i>
   <i type="logical" name="LVTOT"> F  </i>
   <i type="logical" name="LVHAR"> F  </i>
   <i type="logical" name="LELF"> F  </i>
   <i type="logical" name="LOPTICS"> F  </i>
   <v name="STM">      0.00000000      0.00000000      0.00000000      0.00000000      0.00000000      0.00000000      0.00000000</v>
  </separator>
  <separator name="performance" >
   <i type="int" name="NPAR">     5</i>
   <i type="int" name="NSIM">     4</i>
   <i type="int" name="NBLK">    -1</i>
   <i type="logical" name="LPLANE"> F  </i>
   <i type="logical" name="LSCALAPACK"> T  </i>
   <i type="logical" name="LSCAAWARE"> F  </i>
   <i type="logical" name="LSCALU"> F  </i>
   <i type="logical" name="LASYNC"> F  </i>
   <i type="logical" name="LORBITALREAL"> F  </i>
  </separator>
  <separator name="miscellaneous" >
   <i type="int" name="IDIOT">     3</i>
   <i type="logical" name="LMUSIC"> F  </i>
   <v name="POMASS">     28.08500000</v>
   <v name="DARWINR">      0.00000000</v>
   <v name="DARWINV">      1.00000000</v>
   <i type="logical" name="LCORR"> T  </i>
  </separator>
  <i type="logical" name="GGA_COMPAT"> T  </i>
  <i type="logical" name="LBERRY"> F  </i>
  <i type="int" name="ICORELEVEL">     0</i>
  <i type="logical" name="LDAU"> F  </i>
  <i type="int" name="I_CONSTRAINED_M">     0</i>
  <separator name="electronic exchange-correlation" >
   <i type="string" name="GGA">--</i>
   <i type="int" name="VOSKOWN">     0</i>
   <i type="logical" name="LHFCALC"> F  </i>
   <i type="string" name="PRECFOCK"></i>
   <i type="logical" name="LSYMGRAD"> F  </i>
   <i type="logical" name="LHFONE"> F  </i>
   <i type="logical" name="LRHFCALC"> F  </i>
   <i type="logical" name="LTHOMAS"> F  </i>
   <i type="logical" name="LMODELHF"> F  </i>
   <i name="ENCUT4O">     -1.00000000</i>
   <i type="int" name="EXXOEP">     0</i>
   <i type="int" name="FOURORBIT">     0</i>
   <i name="AEXX">      0.00000000</i>
   <i name="HFALPHA">      0.00000000</i>
   <i name="MCALPHA">      0.00000000</i>
   <i name="ALDAX">      1.00000000</i>
   <i name="AGGAX">      1.00000000</i>
   <i name="ALDAC">      1.00000000</i>
   <i name="AGGAC">      1.00000000</i>
   <i type="int" name="NKREDX">     1</i>
   <i type="int" name="NKREDY">     1</i>
   <i type="int" name="NKREDZ">     1</i>
   <i type="logical" name="SHIFTRED"> F  </i>
   <i type="logical" name="ODDONLY"> F  </i>
   <i type="logical" name="EVENONLY"> F  </i>
   <i type="int" name="LMAXFOCK">     0</i>
   <i type="int" name="NMAXFOCKAE">     0</i>
   <i type="logical" name="LFOCKAEDFT"> F  </i>
   <i name="HFSCREEN">      0.00000000</i>
   <i name="HFSCREENC">      0.00000000</i>
   <i type="int" name="NBANDSGWLOW">     0</i>
  </separator>
  <separator name="vdW DFT" >
   <i type="logical" name="LUSE_VDW"> F  </i>
   <i name="Zab_VDW">     -0.84910000</i>
   <i name="PARAM1">      0.12340000</i>
   <i name="PARAM2">      1.00000000</i>
   <i name="PARAM3">      0.00000000</i>
  </separator>
  <separator name="model GW" >
   <i type="int" name="MODEL_GW">     0</i>
   <i name="MODEL_EPS0">     12.01436085</i>
   <i name="MODEL_ALPHA">      1.00000000</i>
  </separator>
  <separator name="linear response parameters" >
   <i type="logical" name="LEPSILON"> F  </i>
   <i type="logical" name="LRPA"> F  </i>
   <i type="logical" name="LNABLA"> F  </i>
   <i type="logical" name="LVEL"> F  </i>
   <i type="int" name="KINTER">     0</i>
   <i name="CSHIFT">      0.10000000</i>
   <i name="OMEGAMAX">     -1.00000000</i>
   <i name="DEG_THRESHOLD">      0.00200000</i>
  </separator>
  <separator name="orbital magnetization" >
   <i type="logical" name="NUCIND"> F  </i>
   <v name="MAGPOS">      0.00000000      0.00000000      0.00000000</v>
   <i type="logical" name="LNICSALL"> T  </i>
   <i type="logical" name="ORBITALMAG"> F  </i>
   <i type="logical" name="LMAGBLOCH"> F  </i>
   <i type="logical" name="LCHIMAG"> F  </i>
   <i type="logical" name="LGAUGE"> T  </i>
   <i type="int" name="MAGATOM">     0</i>
   <v name="MAGDIPOL">      0.00000000      0.00000000      0.00000000</v>
   <v name="AVECCONST">      0.00000000      0.00000000      0.00000000</v>
  </separator>
  <separator name="response functions" >
   <i type="logical" name="LADDER"> F  </i>
   <i type="logical" name="LFXC"> F  </i>
   <i type="logical" name="LHARTREE"> T  </i>
   <i type="int" name="IBSE">     0</i>
   <v type="int" name="KPOINT">    -1     0     0     0</v>
   <i type="logical" name="LTCTE"> F  </i>
   <i type="logical" name="LTETE"> F  </i>
   <i type="logical" name="LTRIPLET"> F  </i>
   <i type="logical" name="LFXCEPS"> F  </i>
   <i type="logical" name="LFXHEG"> F  </i>
   <i type="int" name="NATURALO">     0</i>
   <i type="logical" name="L2ORDER"> F  </i>
   <i type="logical" name="LUSEW"> F  </i>
   <i name="ENCUTGW">     -2.00000000</i>
   <i name="ENCUTGWSOFT">     -2.00000000</i>
   <i name="ENCUTLF">     -1.00000000</i>
   <i type="int" name="LMAXMP2">    -1</i>
   <i name="SCISSOR">      0.00000000</i>
   <i type="int" name="NOMEGA">     0</i>
   <i type="int" name="NOMEGAR">     0</i>
   <i type="int" name="NBANDSGW">    -1</i>
   <i type="int" name="NBANDSO">    -1</i>
   <i type="int" name="NBANDSV">    -1</i>
   <i type="int" name="NELM">    60</i>
   <i type="int" name="NELMHF">     1</i>
   <i type="int" name="DIM">     3</i>
   <i type="int" name="ANTIRES">     0</i>
   <i name="OMEGAMAX">    -30.00000000</i>
   <i name="OMEGAMIN">    -30.00000000</i>
   <i name="OMEGATL">   -200.00000000</i>
   <i type="int" name="OMEGAGRID">     0</i>
   <i name="CSHIFT">     -0.10000000</i>
   <i type="logical" name="SELFENERGY"> F  </i>
   <i type="logical" name="LSPECTRAL"> F  </i>
   <i type="logical" name="LSPECTRALGW"> F  </i>
   <i type="logical" name="LSINGLES"> F  </i>
   <i type="logical" name="LFERMIGW"> F  </i>
   <i type="logical" name="ODDONLYGW"> F  </i>
   <i type="logical" name="EVENONLYGW"> F  </i>
   <i type="int" name="NKREDLFX">     1</i>
   <i type="int" name="NKREDLFY">     1</i>
   <i type="int" name="NKREDLFZ">     1</i>
   <i type="int" name="MAXMEM">  1800</i>
   <i type="int" name="TELESCOPE">     0</i>
   <i type="int" name="TAUPAR">     1</i>
   <i type="int" name="OMEGAPAR">    -1</i>
   <i name="LAMBDA">      1.00000000</i>
  </separator>
  <separator name="External order field" >
   <i name="OFIELD_KAPPA">      0.00000000</i>
   <v name="OFIELD_K">      0.00000000      0.00000000      0.00000000</v>
   <i name="OFIELD_Q6_NEAR">      0.00000000</i>
   <i name="OFIELD_Q6_FAR">      0.00000000</i>
   <i name="OFIELD_A">      0.00000000</i>
  </separator>
 </parameters>
 <atominfo>
  <atoms>       8 </atoms>
  <types>       1 </types>
  <array name="atoms" >
   <dimension dim="1">ion</dimension>
   <field type="string">element</field>
   <field type="int">atomtype</field>
   <set>
    <rc><c>Si</c><c>   1</c></rc>
    <rc><c>Si</c><c>   1</c></rc>
    <rc><c>Si</c><c>   1</c></rc>
    <rc><c>Si</c><c>   1</c></rc>
    <rc><c>Si</c><c>   1</c></rc>
    <rc><c>Si</c><c>   1</c></rc>
    <rc><c>Si</c><c>   1</c></rc>
    <rc><c>Si</c><c>   1</c></rc>
   </set>
  </array>
  <array name="atomtypes" >
   <dimension dim="1">type</dimension>
   <field type="int">atomspertype</field>
   <field type="string">element</field>
   <field>mass</field>
   <field>valence</field>
   <field type="string">pseudopotential</field>
   <set>
    <rc><c>   8</c><c>Si</c><c>     28.08500000</c><c>      4.00000000</c><c>  PAW_PBE Si 05Jan2001                  </c></rc>
   </set>
  </array>
 </atominfo>
 <structure name="initialpos" >
  <crystal>
   <varray name="basis" >
    <v>       5.43100000       0.00000000       0.00000000 </v>
    <v>       0.00000000       5.43100000       0.00000000 </v>
    <v>       0.00000000       0.00000000       5.43100000 </v>
   </varray>
   <i name="volume">    160.19147799 </i>
   <varray name="rec_basis" >
    <v>       0.18412815       0.00000000       0.00000000 </v>
    <v>       0.00000000       0.18412815       0.00000000 </v>
    <v>       0.00000000       0.00000000       0.18412815 </v>
   </varray>
  </crystal>
  <varray name="positions" >
   <v>       0.00000000       0.00000000       0.00000000 </v>
   <v>       0.00000000       0.50000000       0.50000000 </v>
   <v>       0.50000000       0.00000000       0.50000000 </v>
   <v>       0.50000000       0.50000000       0.00000000 </v>
   <v>       0.25000000       0.25000000       0.25000000 </v>
   <v>       0.75000000       0.75000000       0.25000000 </v>
   <v>       0.75000000       0.25000000       0.75000000 </v>
   <v>       0.25000000       0.75000000       0.75000000 </v>
  </varray>
 </structure>
 <calculation>
  <scstep>
   <time name="dav">    1.97    2.06</time>
   <time name="total">    2.01    2.26</time>
   <energy>
    <i name="alphaZ">     13.44915721 </i>
    <i name="ewald">   -914.08579262 </i>
    <i name="hartreedc">    -44.03749844 </i>
    <i name="XCdc">    -74.41615891 </i>
    <i name="pawpsdc">    704.99039692 </i>
    <i name="pawaedc">   -564.24414232 </i>
    <i name="eentropy">     -0.01365325 </i>
    <i name="bandstr">    155.64624034 </i>
    <i name="atom">    824.53437104 </i>
    <i name="e_fr_energy">    101.82291996 </i>
    <i name="e_wo_entrp">    101.83657322 </i>
    <i name="e_0_energy">    101.82974659 </i>
   </energy>
  </scstep>
  <scstep>
   <time name="dav">    2.14    2.27</time>
   <time name="total">    2.15    2.29</time>
   <energy>
    <i name="e_fr_energy">    -36.78469584 </i>
    <i name="e_wo_entrp">    -36.78406843 </i>
    <i name="e_0_energy">    -36.78438213 </i>
   </energy>
  </scstep>
  <scstep>
   <time name="dav">    2.13    2.17</time>
   <time name="total">    2.25    2.30</time>
   <energy>
    <i name="e_fr_energy">    -44.00107134 </i>
    <i name="e_wo_entrp">    -44.00107134 </i>
    <i name="e_0_energy">    -44.00107134 </i>
   </energy>
  </scstep>
  <scstep>
   <time name="dav">    2.10    2.10</time>
   <time name="total">    2.24    2.25</time>
   <energy>
    <i name="e_fr_energy">    -43.60980183 </i>
    <i name="e_wo_entrp">    -43.60980183 </i>
    <i name="e_0_energy">    -43.60980183 </i>
   </energy>
  </scstep>
  <scstep>
   <time name="dav">    1.93    1.94</time>
   <time name="total">    2.07    2.08</time>
   <energy>
    <i name="e_fr_energy">    -43.37214049 </i>
    <i name="e_wo_entrp">    -43.37214030 </i>
    <i name="e_0_energy">    -43.37214039 </i>
   </energy>
  </scstep>
  <scstep>
   <time name="dav">    2.10    2.11</time>
   <time name="total">    2.24    2.26</time>
   <energy>
    <i name="e_fr_energy">    -43.37804654 </i>
    <i name="e_wo_entrp">    -43.37804633 </i>
    <i name="e_0_energy">    -43.37804643 </i>
   </energy>
  </scstep>
  <scstep>
   <time name="dav">    1.92    1.93</time>
   <time name="total">    2.06    2.07</time>
   <energy>
    <i name="e_fr_energy">    -43.38059022 </i>
    <i name="e_wo_entrp">    -43.38059010 </i>
    <i name="e_0_energy">    -43.38059016 </i>
   </energy>
  </scstep>
  <scstep>
   <time name="dav">    1.85    1.85</time>
   <time name="total">    1.87    1.88</time>
   <energy>
    <i name="alphaZ">     13.44915721 </i>
    <i name="ewald">   -914.08579262 </i>
    <i name="hartreedc">    -59.64006020 </i>
    <i name="XCdc">    -71.87157141 </i>
    <i name="pawpsdc">   3499.27582110 </i>
    <i name="pawaedc">  -3359.42065344 </i>
    <i name="eentropy">     -0.00000013 </i>
    <i name="bandstr">     24.37814685 </i>
    <i name="atom">    824.53437104 </i>
    <i name="e_fr_energy">    -43.38058160 </i>
    <i name="e_wo_entrp">    -43.38058148 </i>
    <i name="e_0_energy">    -43.38058154 </i>
   </energy>
  </scstep>
  <structure>
   <crystal>
    <varray name="basis" >
     <v>       5.43100000       0.00000000       0.00000000 </v>
     <v>       0.00000000       5.43100000       0.00000000 </v>
     <v>       0.00000000       0.00000000       5.43100000 </v>
    </varray>
    <i name="volume">    160.19147799 </i>
    <varray name="rec_basis" >
     <v>       0.18412815       0.00000000       0.00000000 </v>
     <v>       0.00000000       0.18412815       0.00000000 </v>
     <v>       0.00000000       0.00000000       0.18412815 </v>
    </varray>
   </crystal>
   <varray name="positions" >
    <v>       0.00000000       0.00000000       0.00000000 </v>
    <v>       0.00000000       0.50000000       0.50000000 </v>
    <v>       0.50000000       0.00000000       0.50000000 </v>
    <v>       0.50000000       0.50000000       0.00000000 </v>
    <v>       0.25000000       0.25000000       0.25000000 </v>
    <v>       0.75000000       0.75000000       0.25000000 </v>
    <v>       0.75000000       0.25000000       0.75000000 </v>
    <v>       0.25000000       0.75000000       0.75000000 </v>
   </varray>
  </structure>
  <varray name="forces" >
   <v>      -0.00000000       0.00000000      -0.00000000 </v>
   <v>      -0.00000000       0.00000000       0.00000000 </v>
   <v>      -0.00000000      -0.00000000       0.00000000 </v>
   <v>      -0.00000000       0.00000000      -0.00000000 </v>
   <v>       0.00000000      -0.00000000       0.00000000 </v>
   <v>       0.00000000      -0.00000000       0.00000000 </v>
   <v>       0.00000000      -0.00000000       0.00000000 </v>
   <v>       0.00000000       0.00000000      -0.00000000 </v>
  </varray>
  <varray name="stress" >
   <v>      19.68525347      -0.00000000      -0.00000000 </v>
   <v>      -0.00000000      19.68525347      -0.00000000 </v>
   <v>       0.00000000       0.00000000      19.68525347 </v>
  </varray>
  <energy>
   <i name="e_fr_energy">    -43.38058160 </i>
   <i name="e_wo_entrp">    -43.38058154 </i>
   <i name="e_0_energy">     -0.00000013 </i>
  </energy>
  <time name="totalsc">   19.01   19.80</time>
 </calculation>
 <calculation>
  <scstep>
   <time name="dav">    1.88    1.89</time>
   <time name="total">    1.91    1.91</time>
   <energy>
    <i name="alphaZ">     12.53512914 </i>
    <i name="ewald">   -892.89050838 </i>
    <i name="hartreedc">    -58.30786925 </i>
    <i name="XCdc">    -73.24899613 </i>
    <i name="pawpsdc">   3465.37177312 </i>
    <i name="pawaedc">  -3325.51973154 </i>
    <i name="eentropy">     -0.00000000 </i>
    <i name="bandstr">      4.12874856 </i>
    <i name="atom">    824.53437104 </i>
    <i name="e_fr_energy">    -43.39708344 </i>
    <i name="e_wo_entrp">    -43.39708344 </i>
    <i name="e_0_energy">    -43.39708344 </i>
   </energy>
  </scstep>
  <scstep>
   <time name="dav">    2.03    2.03</time>
   <time name="total">    2.03    2.04</time>
   <energy>
    <i name="e_fr_energy">    -43.40491101 </i>
    <i name="e_wo_entrp">    -43.40491101 </i>
    <i name="e_0_energy">    -43.40491101 </i>
   </energy>
  </scstep>
  <scstep>
   <time name="dav">    2.10    2.11</time>
   <time name="total">    2.25    2.28</time>
   <energy>
    <i name="e_fr_energy">    -43.40499824 </i>
    <i name="e_wo_entrp">    -43.40499824 </i>
    <i name="e_0_energy">    -43.40499824 </i>
   </energy>
  </scstep>
  <scstep>
   <time name="dav">    1.81    1.81</time>
   <time name="total">    1.95    1.97</time>
   <energy>
    <i name="e_fr_energy">    -43.33054261 </i>
    <i name="e_wo_entrp">    -43.33054261 </i>
    <i name="e_0_energy">    -43.33054261 </i>
   </energy>
  </scstep>
  <scstep>
   <time name="dav">    1.91    1.92</time>
   <time name="total">    2.05    2.06</time>
   <energy>
    <i name="e_fr_energy">    -43.29352858 </i>
    <i name="e_wo_entrp">    -43.29352857 </i>
    <i name="e_0_energy">    -43.29352858 </i>
   </energy>
  </scstep>
  <scstep>
   <time name="dav">    1.94    1.95</time>
   <time name="total">    2.08    2.09</time>
   <energy>
    <i name="e_fr_energy">    -43.29333698 </i>
    <i name="e_wo_entrp">    -43.29333698 </i>
    <i name="e_0_energy">    -43.29333698 </i>
   </energy>
  </scstep>
  <scstep>
   <time name="dav">    1.97    2.09</time>
   <time name="total">    1.99    2.12</time>
   <energy>
    <i name="alphaZ">     12.53512914 </i>
    <i name="ewald">   -892.89050838 </i>
    <i name="hartreedc">    -63.08579892 </i>
    <i name="XCdc">    -73.14522217 </i>
    <i name="pawpsdc">   2947.51937284 </i>
    <i name="pawaedc">  -2807.42915318 </i>
    <i name="eentropy">     -0.00000000 </i>
    <i name="bandstr">      8.66855457 </i>
    <i name="atom">    824.53437104 </i>
    <i name="e_fr_energy">    -43.29325506 </i>
    <i name="e_wo_entrp">    -43.29325506 </i>
    <i name="e_0_energy">    -43.29325506 </i>
   </energy>
  </scstep>
  <structure>
   <crystal>
    <varray name="basis" >
     <v>       5.55992016      -0.00000000      -0.00000000 </v>
     <v>      -0.00000000       5.55992016      -0.00000000 </v>
     <v>       0.00000000       0.00000000       5.55992016 </v>
    </varray>
    <i name="volume">    171.87221184 </i>
    <varray name="rec_basis" >
     <v>       0.17985870       0.00000000      -0.00000000 </v>
     <v>       0.00000000       0.17985870      -0.00000000 </v>
     <v>       0.00000000       0.00000000       0.17985870 </v>
    </varray>
   </crystal>
   <varray name="positions" >
    <v>      -0.00000000       0.00000000      -0.00000000 </v>
    <v>      -0.00000000       0.50000000       0.50000000 </v>
    <v>       0.50000000      -0.00000000       0.50000000 </v>
    <v>       0.50000000       0.50000000      -0.00000000 </v>
    <v>       0.25000000       0.25000000       0.25000000 </v>
    <v>       0.75000000       0.75000000       0.25000000 </v>
    <v>       0.75000000       0.25000000       0.75000000 </v>
    <v>       0.25000000       0.75000000       0.75000000 </v>
   </varray>
  </structure>
  <varray name="forces" >
   <v>       0.00000000       0.00000000       0.00000000 </v>
   <v>       0.00000000      -0.00000000      -0.00000000 </v>
   <v>      -0.00000000      -0.00000000      -0.00000000 </v>
   <v>       0.00000000      -0.00000000       0.00000000 </v>
   <v>       0.00000000      -0.00000000      -0.00000000 </v>
   <v>      -0.00000000       0.00000000      -0.00000000 </v>
   <v>      -0.00000000       0.00000000       0.00000000 </v>
   <v>      -0.00000000      -0.00000000       0.00000000 </v>
  </varray>
  <varray name="stress" >
   <v>     -39.61889602      -0.00000000      -0.00000000 </v>
   <v>       0.00000000     -39.61889602      -0.00000000 </v>
   <v>      -0.00000000       0.00000000     -39.61889602 </v>
  </varray>
  <energy>
   <i name="e_fr_energy">    -43.29325506 </i>
   <i name="e_wo_entrp">    -43.29325506 </i>
   <i name="e_0_energy">     -0.00000000 </i>
  </energy>
  <time name="totalsc">   15.32   15.56</time>
 </calculation>
 <calculation>
  <scstep>
   <time name="dav">    2.01    2.01</time>
   <time name="total">    2.03    2.05</time>
   <energy>
    <i name="alphaZ">     13.16656741 </i>
    <i name="ewald">   -907.63825294 </i>
    <i name="hartreedc">    -64.14164773 </i>
    <i name="XCdc">    -72.19533698 </i>
    <i name="pawpsdc">   2977.88487975 </i>
    <i name="pawaedc">  -2837.80102529 </i>
    <i name="eentropy">     -0.00000039 </i>
    <i name="bandstr">     22.73928553 </i>
    <i name="atom">    824.53437104 </i>
    <i name="e_fr_energy">    -43.45115960 </i>
    <i name="e_wo_entrp">    -43.45115921 </i>
    <i name="e_0_energy">    -43.45115940 </i>
   </energy>
  </scstep>
  <scstep>
   <time name="dav">    2.11    2.12</time>
   <time name="total">    2.11    2.13</time>
   <energy>
    <i name="e_fr_energy">    -43.45604758 </i>
    <i name="e_wo_entrp">    -43.45604719 </i>
    <i name="e_0_energy">    -43.45604739 </i>
   </energy>
  </scstep>
  <scstep>
   <time name="dav">    1.95    1.97</time>
   <time name="total">    2.07    2.09</time>
   <energy>
    <i name="e_fr_energy">    -43.45608402 </i>
    <i name="e_wo_entrp">    -43.45608363 </i>
    <i name="e_0_energy">    -43.45608382 </i>
   </energy>
  </scstep>
  <scstep>
   <time name="dav">    1.72    1.73</time>
   <time name="total">    1.86    1.88</time>
   <energy>
    <i name="e_fr_energy">    -43.41893518 </i>
    <i name="e_wo_entrp">    -43.41893504 </i>
    <i name="e_0_energy">    -43.41893511 </i>
   </energy>
  </scstep>
  <scstep>
   <time name="dav">    1.87    1.88</time>
   <time name="total">    2.01    2.03</time>
   <energy>
    <i name="e_fr_energy">    -43.40065788 </i>
    <i name="e_wo_entrp">    -43.40065783 </i>
    <i name="e_0_energy">    -43.40065786 </i>
   </energy>
  </scstep>
  <scstep>
   <time name="dav">    1.98    2.00</time>
   <time name="total">    2.12    2.14</time>
   <energy>
    <i name="e_fr_energy">    -43.40063958 </i>
    <i name="e_wo_entrp">    -43.40063954 </i>
    <i name="e_0_energy">    -43.40063956 </i>
   </energy>
  </scstep>
  <scstep>
   <time name="dav">    1.81    1.96</time>
   <time name="total">    1.83    1.99</time>
   <energy>
    <i name="alphaZ">     13.16656741 </i>
    <i name="ewald">   -907.63825294 </i>
    <i name="hartreedc">    -60.70089971 </i>
    <i name="XCdc">    -72.25490535 </i>
    <i name="pawpsdc">   3322.68194247 </i>
    <i name="pawaedc">  -3182.75714753 </i>
    <i name="eentropy">     -0.00000004 </i>
    <i name="bandstr">     19.56775993 </i>
    <i name="atom">    824.53437104 </i>
    <i name="e_fr_energy">    -43.40056471 </i>
    <i name="e_wo_entrp">    -43.40056467 </i>
    <i name="e_0_energy">    -43.40056469 </i>
   </energy>
  </scstep>
  <structure>
   <crystal>
    <varray name="basis" >
     <v>       5.46957989      -0.00000000      -0.00000000 </v>
     <v>      -0.00000000       5.46957989      -0.00000000 </v>
     <v>       0.00000000       0.00000000       5.46957989 </v>
    </varray>
    <i name="volume">    163.62961609 </i>
    <varray name="rec_basis" >
     <v>       0.18282940       0.00000000      -0.00000000 </v>
     <v>       0.00000000       0.18282940      -0.00000000 </v>
     <v>       0.00000000       0.00000000       0.18282940 </v>
    </varray>
   </crystal>
   <varray name="positions" >
    <v>      -0.00000000       0.00000000      -0.00000000 </v>
    <v>      -0.00000000       0.50000000       0.50000000 </v>
    <v>       0.50000000      -0.00000000       0.50000000 </v>
    <v>       0.50000000       0.50000000      -0.00000000 </v>
    <v>       0.25000000       0.25000000       0.25000000 </v>
    <v>       0.75000000       0.75000000       0.25000000 </v>
    <v>       0.75000000       0.25000000       0.75000000 </v>
    <v>       0.25000000       0.75000000       0.75000000 </v>
   </varray>
  </structure>
  <varray name="forces" >
   <v>       0.00000000      -0.00000000       0.00000000 </v>
   <v>       0.00000000      -0.00000000       0.00000000 </v>
   <v>       0.00000000       0.00000000       0.00000000 </v>
   <v>       0.00000000      -0.00000000       0.00000000 </v>
   <v>      -0.00000000       0.00000000      -0.00000000 </v>
   <v>      -0.00000000       0.00000000      -0.00000000 </v>
   <v>       0.00000000       0.00000000      -0.00000000 </v>
   <v>      -0.00000000      -0.00000000      -0.00000000 </v>
  </varray>
  <varray name="stress" >
   <v>      -0.28269846       0.00000000      -0.00000000 </v>
   <v>       0.00000000      -0.28269846      -0.00000000 </v>
   <v>      -0.00000000       0.00000000      -0.28269846 </v>
  </varray>
  <energy>
   <i name="e_fr_energy">    -43.40056471 </i>
   <i name="e_wo_entrp">    -43.40056469 </i>
   <i name="e_0_energy">     -0.00000004 </i>
  </energy>
  <time name="totalsc">   15.45   15.99</time>
  <eigenvalues>
   <array>
    <dimension dim="1">band</dimension>
    <dimension dim="2">kpoint</dimension>
    <dimension dim="3">spin</dimension>
    <field>eigene</field>
    <field>occ</field>
    <set>
     <set comment="spin 1">
      <set comment="kpoint 1">
       <r>   -6.2003    1.0000 </r>
       <r>   -2.1337    1.0000 </r>
       <r>   -2.1337    1.0000 </r>
       <r>   -2.1337    1.0000 </r>
       <r>   -2.1337    1.0000 </r>
       <r>   -2.1337    1.0000 </r>
       <r>   -2.1337    1.0000 </r>
       <r>    2.8182    1.0000 </r>
       <r>    2.8182    1.0000 </r>
       <r>    2.8182    1.0000 </r>
       <r>    2.8182    1.0000 </r>
       <r>    2.8182    1.0000 </r>
       <r>    2.8182    1.0000 </r>
       <r>    5.6109    1.0000 </r>
       <r>    5.6109    1.0000 </r>
       <r>    5.6109    1.0000 </r>
       <r>    6.3642    0.0000 </r>
       <r>    6.3642    0.0000 </r>
       <r>    6.3642    0.0000 </r>
       <r>    6.3642    0.0000 </r>
       <r>    6.3642    0.0000 </r>
       <r>    6.3642    0.0000 </r>
       <r>    8.1678    0.0000 </r>
       <r>    8.1678    0.0000 </r>
       <r>    8.1678    0.0000 </r>
      </set>
      <set comment="kpoint 2">
       <r>   -6.1648    1.0000 </r>
       <r>   -2.8016    1.0000 </r>
       <r>   -2.1224    1.0000 </r>
       <r>   -2.1224    1.0000 </r>
       <r>   -2.1224    1.0000 </r>
       <r>   -2.1224    1.0000 </r>
       <r>   -1.4234    1.0000 </r>
       <r>    2.7178    1.0000 </r>
       <r>    2.7178    1.0000 </r>
       <r>    2.7178    1.0000 </r>
       <r>    2.7178    1.0000 </r>
       <r>    2.8503    1.0000 </r>
       <r>    2.8503    1.0000 </r>
       <r>    5.3688    1.0000 </r>
       <r>    5.4680    1.0000 </r>
       <r>    5.4680    1.0000 </r>
       <r>    6.2489    0.0000 </r>
       <r>    6.5548    0.0000 </r>
       <r>    6.5548    0.0000 </r>
       <r>    6.5548    0.0000 </r>
       <r>    6.5548    0.0000 </r>
       <r>    6.5756    0.0000 </r>
       <r>    8.0818    0.0000 </r>
       <r>    8.3545    0.0000 </r>
       <r>    8.3545    0.0000 </r>
      </set>
      <set comment="kpoint 3">
       <r>   -6.0584    1.0000 </r>
       <r>   -3.4209    1.0000 </r>
       <r>   -2.0914    1.0000 </r>
       <r>   -2.0914    1.0000 </r>
       <r>   -2.0914    1.0000 </r>
       <r>   -2.0914    1.0000 </r>
       <r>   -0.6779    1.0000 </r>
       <r>    2.4782    1.0000 </r>
       <r>    2.4782    1.0000 </r>
       <r>    2.4782    1.0000 </r>
       <r>    2.4782    1.0000 </r>
       <r>    2.9463    1.0000 </r>
       <r>    2.9463    1.0000 </r>
       <r>    4.7916    1.0000 </r>
       <r>    5.1289    1.0000 </r>
       <r>    5.1289    1.0000 </r>
       <r>    6.2247    0.0000 </r>
       <r>    6.8874    0.0000 </r>
       <r>    7.0669    0.0000 </r>
       <r>    7.0669    0.0000 </r>
       <r>    7.0669    0.0000 </r>
       <r>    7.0669    0.0000 </r>
       <r>    7.8536    0.0000 </r>
       <r>    8.8242    0.0000 </r>
       <r>    8.8242    0.0000 </r>
      </set>
      <set comment="kpoint 4">
       <r>   -5.8816    1.0000 </r>
       <r>   -3.9864    1.0000 </r>
       <r>   -2.0490    1.0000 </r>
       <r>   -2.0490    1.0000 </r>
       <r>   -2.0490    1.0000 </r>
       <r>   -2.0490    1.0000 </r>
       <r>    0.0949    1.0000 </r>
       <r>    2.2085    1.0000 </r>
       <r>    2.2085    1.0000 </r>
       <r>    2.2085    1.0000 </r>
       <r>    2.2085    1.0000 </r>
       <r>    3.1052    1.0000 </r>
       <r>    3.1052    1.0000 </r>
       <r>    4.0708    1.0000 </r>
       <r>    4.7212    1.0000 </r>
       <r>    4.7212    1.0000 </r>
       <r>    6.2858    0.0000 </r>
       <r>    7.3015    0.0000 </r>
       <r>    7.5461    0.0000 </r>
       <r>    7.7958    0.0000 </r>
       <r>    7.7958    0.0000 </r>
       <r>    7.7958    0.0000 </r>
       <r>    7.7958    0.0000 </r>
       <r>    9.4476    0.0000 </r>
       <r>    9.4476    0.0000 </r>
      </set>
      <set comment="kpoint 5">
       <r>   -5.6353    1.0000 </r>
       <r>   -4.4937    1.0000 </r>
       <r>   -2.0080    1.0000 </r>
       <r>   -2.0080    1.0000 </r>
       <r>   -2.0080    1.0000 </r>
       <r>   -2.0080    1.0000 </r>
       <r>    0.8868    1.0000 </r>
       <r>    1.9892    1.0000 </r>
       <r>    1.9892    1.0000 </r>
       <r>    1.9892    1.0000 </r>
       <r>    1.9892    1.0000 </r>
       <r>    3.2940    1.0000 </r>
       <r>    3.3253    1.0000 </r>
       <r>    3.3253    1.0000 </r>
       <r>    4.3132    1.0000 </r>
       <r>    4.3132    1.0000 </r>
       <r>    6.4255    0.0000 </r>
       <r>    7.2166    0.0000 </r>
       <r>    7.8162    0.0000 </r>
       <r>    8.6645    0.0000 </r>
       <r>    8.6645    0.0000 </r>
       <r>    8.6645    0.0000 </r>
       <r>    8.6645    0.0000 </r>
       <r>    9.6833    0.0000 </r>
       <r>   10.1535    0.0000 </r>
      </set>
      <set comment="kpoint 6">
       <r>   -5.3207    1.0000 </r>
       <r>   -4.9394    1.0000 </r>
       <r>   -1.9827    1.0000 </r>
       <r>   -1.9827    1.0000 </r>
       <r>   -1.9827    1.0000 </r>
       <r>   -1.9827    1.0000 </r>
       <r>    1.6896    1.0000 </r>
       <r>    1.8679    1.0000 </r>
       <r>    1.8679    1.0000 </r>
       <r>    1.8679    1.0000 </r>
       <r>    1.8679    1.0000 </r>
       <r>    2.4951    1.0000 </r>
       <r>    3.6037    1.0000 </r>
       <r>    3.6037    1.0000 </r>
       <r>    3.9357    1.0000 </r>
       <r>    3.9357    1.0000 </r>
       <r>    6.6355    0.0000 </r>
       <r>    6.9046    0.0000 </r>
       <r>    8.4206    0.0000 </r>
       <r>    9.0803    0.0000 </r>
       <r>    9.5926    0.0000 </r>
       <r>    9.5926    0.0000 </r>
       <r>    9.5926    0.0000 </r>
       <r>    9.5926    0.0000 </r>
       <r>   10.8486    0.0000 </r>
      </set>
      <set comment="kpoint 7">
       <r>   -6.1294    1.0000 </r>
       <r>   -2.7832    1.0000 </r>
       <r>   -2.7832    1.0000 </r>
       <r>   -2.1684    1.0000 </r>
       <r>   -2.0565    1.0000 </r>
       <r>   -1.4221    1.0000 </r>
       <r>   -1.4221    1.0000 </r>
       <r>    2.4203    1.0000 </r>
       <r>    2.7348    1.0000 </r>
       <r>    2.7348    1.0000 </r>
       <r>    2.7693    1.0000 </r>
       <r>    2.7693    1.0000 </r>
       <r>    2.8750    1.0000 </r>
       <r>    4.9761    1.0000 </r>
       <r>    5.3248    1.0000 </r>
       <r>    5.5784    1.0000 </r>
       <r>    6.4295    0.0000 </r>
       <r>    6.4480    0.0000 </r>
       <r>    6.4480    0.0000 </r>
       <r>    6.7559    0.0000 </r>
       <r>    6.7559    0.0000 </r>
       <r>    7.0033    0.0000 </r>
       <r>    8.2409    0.0000 </r>
       <r>    8.3005    0.0000 </r>
       <r>    8.3515    0.0000 </r>
      </set>
      <set comment="kpoint 8">
       <r>   -6.0233    1.0000 </r>
       <r>   -3.3975    1.0000 </r>
       <r>   -2.7303    1.0000 </r>
       <r>   -2.2026    1.0000 </r>
       <r>   -1.9682    1.0000 </r>
       <r>   -1.4219    1.0000 </r>
       <r>   -0.6909    1.0000 </r>
       <r>    2.0920    1.0000 </r>
       <r>    2.4583    1.0000 </r>
       <r>    2.5783    1.0000 </r>
       <r>    2.8191    1.0000 </r>
       <r>    2.8314    1.0000 </r>
       <r>    2.8898    1.0000 </r>
       <r>    4.3992    1.0000 </r>
       <r>    4.9846    1.0000 </r>
       <r>    5.3773    1.0000 </r>
       <r>    6.4303    0.0000 </r>
       <r>    6.6838    0.0000 </r>
       <r>    6.9763    0.0000 </r>
       <r>    7.0557    0.0000 </r>
       <r>    7.2470    0.0000 </r>
       <r>    7.6723    0.0000 </r>
       <r>    8.0448    0.0000 </r>
       <r>    8.6044    0.0000 </r>
       <r>    8.7505    0.0000 </r>
      </set>
      <set comment="kpoint 9">
       <r>   -5.8470    1.0000 </r>
       <r>   -3.9594    1.0000 </r>
       <r>   -2.6490    1.0000 </r>
       <r>   -2.2371    1.0000 </r>
       <r>   -1.8606    1.0000 </r>
       <r>   -1.4325    1.0000 </r>
       <r>    0.0613    1.0000 </r>
       <r>    1.8145    1.0000 </r>
       <r>    2.1389    1.0000 </r>
       <r>    2.3749    1.0000 </r>
       <r>    2.6492    1.0000 </r>
       <r>    2.9695    1.0000 </r>
       <r>    3.0797    1.0000 </r>
       <r>    3.7514    1.0000 </r>
       <r>    4.5753    1.0000 </r>
       <r>    4.9656    1.0000 </r>
       <r>    6.4957    0.0000 </r>
       <r>    7.2552    0.0000 </r>
       <r>    7.4568    0.0000 </r>
       <r>    7.7190    0.0000 </r>
       <r>    7.7452    0.0000 </r>
       <r>    7.9564    0.0000 </r>
       <r>    8.4881    0.0000 </r>
       <r>    9.0988    0.0000 </r>
       <r>    9.3823    0.0000 </r>
      </set>
      <set comment="kpoint 10">
       <r>   -5.6014    1.0000 </r>
       <r>   -4.4641    1.0000 </r>
       <r>   -2.5500    1.0000 </r>
       <r>   -2.2851    1.0000 </r>
       <r>   -1.7426    1.0000 </r>
       <r>   -1.4664    1.0000 </r>
       <r>    0.8238    1.0000 </r>
       <r>    1.6371    1.0000 </r>
       <r>    1.8579    1.0000 </r>
       <r>    2.2340    1.0000 </r>
       <r>    2.4358    1.0000 </r>
       <r>    3.0591    1.0000 </r>
       <r>    3.1837    1.0000 </r>
       <r>    3.3387    1.0000 </r>
       <r>    4.1662    1.0000 </r>
       <r>    4.4999    1.0000 </r>
       <r>    6.6376    0.0000 </r>
       <r>    7.4220    0.0000 </r>
       <r>    7.9575    0.0000 </r>
       <r>    8.0374    0.0000 </r>
       <r>    8.5983    0.0000 </r>
       <r>    8.8075    0.0000 </r>
       <r>    9.4003    0.0000 </r>
       <r>    9.5552    0.0000 </r>
       <r>   10.0997    0.0000 </r>
      </set>
      <set comment="kpoint 11">
       <r>   -5.2878    1.0000 </r>
       <r>   -4.9079    1.0000 </r>
       <r>   -2.4471    1.0000 </r>
       <r>   -2.3554    1.0000 </r>
       <r>   -1.6279    1.0000 </r>
       <r>   -1.5321    1.0000 </r>
       <r>    1.5851    1.0000 </r>
       <r>    1.5853    1.0000 </r>
       <r>    1.6635    1.0000 </r>
       <r>    2.1960    1.0000 </r>
       <r>    2.2696    1.0000 </r>
       <r>    2.3338    1.0000 </r>
       <r>    3.4585    1.0000 </r>
       <r>    3.6656    1.0000 </r>
       <r>    3.7888    1.0000 </r>
       <r>    4.0564    1.0000 </r>
       <r>    6.8475    0.0000 </r>
       <r>    7.1144    0.0000 </r>
       <r>    8.5465    0.0000 </r>
       <r>    8.9454    0.0000 </r>
       <r>    9.1793    0.0000 </r>
       <r>    9.5582    0.0000 </r>
       <r>    9.6100    0.0000 </r>
       <r>   10.2201    0.0000 </r>
       <r>   10.2379    0.0000 </r>
      </set>
      <set comment="kpoint 12">
       <r>   -5.9180    1.0000 </r>
       <r>   -3.3290    1.0000 </r>
       <r>   -3.3290    1.0000 </r>
       <r>   -2.3136    1.0000 </r>
       <r>   -1.8253    1.0000 </r>
       <r>   -0.7336    1.0000 </r>
       <r>   -0.7336    1.0000 </r>
       <r>    1.7553    1.0000 </r>
       <r>    2.5154    1.0000 </r>
       <r>    2.5154    1.0000 </r>
       <r>    2.7618    1.0000 </r>
       <r>    2.7618    1.0000 </r>
       <r>    3.0426    1.0000 </r>
       <r>    3.8229    1.0000 </r>
       <r>    4.6411    1.0000 </r>
       <r>    5.4689    1.0000 </r>
       <r>    6.6228    0.0000 </r>
       <r>    6.9700    0.0000 </r>
       <r>    6.9700    0.0000 </r>
       <r>    7.5213    0.0000 </r>
       <r>    7.5213    0.0000 </r>
       <r>    8.4282    0.0000 </r>
       <r>    8.4602    0.0000 </r>
       <r>    8.4959    0.0000 </r>
       <r>    8.6211    0.0000 </r>
      </set>
      <set comment="kpoint 13">
       <r>   -5.7432    1.0000 </r>
       <r>   -3.8796    1.0000 </r>
       <r>   -3.2196    1.0000 </r>
       <r>   -2.4369    1.0000 </r>
       <r>   -1.6605    1.0000 </r>
       <r>   -0.8141    1.0000 </r>
       <r>   -0.0399    1.0000 </r>
       <r>    1.5186    1.0000 </r>
       <r>    2.1598    1.0000 </r>
       <r>    2.6428    1.0000 </r>
       <r>    2.6461    1.0000 </r>
       <r>    3.0310    1.0000 </r>
       <r>    3.0533    1.0000 </r>
       <r>    3.2157    1.0000 </r>
       <r>    4.2281    1.0000 </r>
       <r>    5.2363    1.0000 </r>
       <r>    6.9362    0.0000 </r>
       <r>    7.0420    0.0000 </r>
       <r>    7.7208    0.0000 </r>
       <r>    7.8930    0.0000 </r>
       <r>    8.2056    0.0000 </r>
       <r>    8.2483    0.0000 </r>
       <r>    8.7238    0.0000 </r>
       <r>    9.2078    0.0000 </r>
       <r>    9.2916    0.0000 </r>
      </set>
      <set comment="kpoint 14">
       <r>   -5.4998    1.0000 </r>
       <r>   -4.3761    1.0000 </r>
       <r>   -3.0773    1.0000 </r>
       <r>   -2.5805    1.0000 </r>
       <r>   -1.4772    1.0000 </r>
       <r>   -0.9375    1.0000 </r>
       <r>    0.6462    1.0000 </r>
       <r>    1.4085    1.0000 </r>
       <r>    1.8328    1.0000 </r>
       <r>    2.5934    1.0000 </r>
       <r>    2.5959    1.0000 </r>
       <r>    2.8469    1.0000 </r>
       <r>    2.9245    1.0000 </r>
       <r>    3.3847    1.0000 </r>
       <r>    3.8167    1.0000 </r>
       <r>    4.8012    1.0000 </r>
       <r>    7.1857    0.0000 </r>
       <r>    7.5595    0.0000 </r>
       <r>    7.9453    0.0000 </r>
       <r>    8.3612    0.0000 </r>
       <r>    8.6044    0.0000 </r>
       <r>    9.0305    0.0000 </r>
       <r>    9.1635    0.0000 </r>
       <r>    9.9503    0.0000 </r>
       <r>   10.2174    0.0000 </r>
      </set>
      <set comment="kpoint 15">
       <r>   -5.1894    1.0000 </r>
       <r>   -4.8139    1.0000 </r>
       <r>   -2.9135    1.0000 </r>
       <r>   -2.7429    1.0000 </r>
       <r>   -1.2851    1.0000 </r>
       <r>   -1.0993    1.0000 </r>
       <r>    1.3153    1.0000 </r>
       <r>    1.4321    1.0000 </r>
       <r>    1.5803    1.0000 </r>
       <r>    1.9641    1.0000 </r>
       <r>    2.6364    1.0000 </r>
       <r>    2.7605    1.0000 </r>
       <r>    3.1134    1.0000 </r>
       <r>    3.4397    1.0000 </r>
       <r>    3.8151    1.0000 </r>
       <r>    4.3012    1.0000 </r>
       <r>    7.3926    0.0000 </r>
       <r>    7.6513    0.0000 </r>
       <r>    8.3845    0.0000 </r>
       <r>    8.9105    0.0000 </r>
       <r>    9.2938    0.0000 </r>
       <r>    9.4089    0.0000 </r>
       <r>    9.5736    0.0000 </r>
       <r>   10.0504    0.0000 </r>
       <r>   10.1198    0.0000 </r>
      </set>
      <set comment="kpoint 16">
       <r>   -5.5710    1.0000 </r>
       <r>   -3.7500    1.0000 </r>
       <r>   -3.7500    1.0000 </r>
       <r>   -2.6557    1.0000 </r>
       <r>   -1.4412    1.0000 </r>
       <r>   -0.2065    1.0000 </r>
       <r>   -0.2065    1.0000 </r>
       <r>    1.3485    1.0000 </r>
       <r>    2.2648    1.0000 </r>
       <r>    2.2648    1.0000 </r>
       <r>    2.6497    1.0000 </r>
       <r>    3.0119    1.0000 </r>
       <r>    3.0119    1.0000 </r>
       <r>    3.3131    1.0000 </r>
       <r>    3.8116    1.0000 </r>
       <r>    5.2579    1.0000 </r>
       <r>    6.9348    0.0000 </r>
       <r>    7.7955    0.0000 </r>
       <r>    7.7955    0.0000 </r>
       <r>    8.5470    0.0000 </r>
       <r>    8.5470    0.0000 </r>
       <r>    8.5949    0.0000 </r>
       <r>    8.8247    0.0000 </r>
       <r>    9.0626    0.0000 </r>
       <r>   10.1789    0.0000 </r>
      </set>
      <set comment="kpoint 17">
       <r>   -5.3315    1.0000 </r>
       <r>   -4.2318    1.0000 </r>
       <r>   -3.5762    1.0000 </r>
       <r>   -2.8916    1.0000 </r>
       <r>   -1.2008    1.0000 </r>
       <r>   -0.4265    1.0000 </r>
       <r>    0.3831    1.0000 </r>
       <r>    1.3128    1.0000 </r>
       <r>    1.9049    1.0000 </r>
       <r>    2.0827    1.0000 </r>
       <r>    2.4480    1.0000 </r>
       <r>    3.0551    1.0000 </r>
       <r>    3.3716    1.0000 </r>
       <r>    3.3989    1.0000 </r>
       <r>    3.4706    1.0000 </r>
       <r>    4.9854    1.0000 </r>
       <r>    7.2986    0.0000 </r>
       <r>    7.9362    0.0000 </r>
       <r>    8.6459    0.0000 </r>
       <r>    8.6773    0.0000 </r>
       <r>    8.7608    0.0000 </r>
       <r>    8.9806    0.0000 </r>
       <r>    9.3274    0.0000 </r>
       <r>    9.7418    0.0000 </r>
       <r>    9.8630    0.0000 </r>
      </set>
      <set comment="kpoint 18">
       <r>   -5.0267    1.0000 </r>
       <r>   -4.6590    1.0000 </r>
       <r>   -3.3667    1.0000 </r>
       <r>   -3.1336    1.0000 </r>
       <r>   -0.9433    1.0000 </r>
       <r>   -0.6794    1.0000 </r>
       <r>    0.9560    1.0000 </r>
       <r>    1.4049    1.0000 </r>
       <r>    1.5196    1.0000 </r>
       <r>    1.6092    1.0000 </r>
       <r>    2.7034    1.0000 </r>
       <r>    3.0237    1.0000 </r>
       <r>    3.1584    1.0000 </r>
       <r>    3.2871    1.0000 </r>
       <r>    3.9908    1.0000 </r>
       <r>    4.5227    1.0000 </r>
       <r>    7.9615    0.0000 </r>
       <r>    8.1342    0.0000 </r>
       <r>    8.3773    0.0000 </r>
       <r>    8.8130    0.0000 </r>
       <r>    9.1323    0.0000 </r>
       <r>    9.4467    0.0000 </r>
       <r>    9.6441    0.0000 </r>
       <r>    9.7289    0.0000 </r>
       <r>   10.1585    0.0000 </r>
      </set>
      <set comment="kpoint 19">
       <r>   -5.0981    1.0000 </r>
       <r>   -4.0353    1.0000 </r>
       <r>   -4.0353    1.0000 </r>
       <r>   -3.2073    1.0000 </r>
       <r>   -0.9061    1.0000 </r>
       <r>    0.0701    1.0000 </r>
       <r>    0.0701    1.0000 </r>
       <r>    1.3451    1.0000 </r>
       <r>    1.5656    1.0000 </r>
       <r>    2.0653    1.0000 </r>
       <r>    2.0653    1.0000 </r>
       <r>    2.9872    1.0000 </r>
       <r>    3.5885    1.0000 </r>
       <r>    3.5885    1.0000 </r>
       <r>    3.6706    1.0000 </r>
       <r>    4.9356    1.0000 </r>
       <r>    7.3460    0.0000 </r>
       <r>    8.5476    0.0000 </r>
       <r>    8.8099    0.0000 </r>
       <r>    8.8099    0.0000 </r>
       <r>    9.2791    0.0000 </r>
       <r>    9.2791    0.0000 </r>
       <r>    9.3329    0.0000 </r>
       <r>    9.6216    0.0000 </r>
       <r>    9.7753    0.0000 </r>
      </set>
      <set comment="kpoint 20">
       <r>   -4.8017    1.0000 </r>
       <r>   -4.4459    1.0000 </r>
       <r>   -3.7925    1.0000 </r>
       <r>   -3.5126    1.0000 </r>
       <r>   -0.5916    1.0000 </r>
       <r>   -0.2620    1.0000 </r>
       <r>    0.5617    1.0000 </r>
       <r>    1.0582    1.0000 </r>
       <r>    1.4925    1.0000 </r>
       <r>    1.7388    1.0000 </r>
       <r>    2.3056    1.0000 </r>
       <r>    2.6167    1.0000 </r>
       <r>    3.7076    1.0000 </r>
       <r>    3.7651    1.0000 </r>
       <r>    4.1399    1.0000 </r>
       <r>    4.6259    1.0000 </r>
       <r>    7.7436    0.0000 </r>
       <r>    8.4244    0.0000 </r>
       <r>    8.5976    0.0000 </r>
       <r>    8.8684    0.0000 </r>
       <r>    8.9924    0.0000 </r>
       <r>    9.2085    0.0000 </r>
       <r>    9.7645    0.0000 </r>
       <r>   10.2438    0.0000 </r>
       <r>   10.3786    0.0000 </r>
      </set>
      <set comment="kpoint 21">
       <r>   -4.5177    1.0000 </r>
       <r>   -4.1791    1.0000 </r>
       <r>   -4.1791    1.0000 </r>
       <r>   -3.8650    1.0000 </r>
       <r>   -0.2231    1.0000 </r>
       <r>    0.1634    1.0000 </r>
       <r>    0.1634    1.0000 </r>
       <r>    0.6033    1.0000 </r>
       <r>    1.6815    1.0000 </r>
       <r>    1.9578    1.0000 </r>
       <r>    1.9578    1.0000 </r>
       <r>    2.2548    1.0000 </r>
       <r>    4.0892    1.0000 </r>
       <r>    4.1998    1.0000 </r>
       <r>    4.1998    1.0000 </r>
       <r>    4.5285    1.0000 </r>
       <r>    7.8156    0.0000 </r>
       <r>    8.2139    0.0000 </r>
       <r>    8.2139    0.0000 </r>
       <r>    8.2612    0.0000 </r>
       <r>    9.9211    0.0000 </r>
       <r>    9.9211    0.0000 </r>
       <r>    9.9825    0.0000 </r>
       <r>   10.3053    0.0000 </r>
       <r>   10.7690    0.0000 </r>
      </set>
      <set comment="kpoint 22">
       <r>   -6.0940    1.0000 </r>
       <r>   -2.7679    1.0000 </r>
       <r>   -2.7679    1.0000 </r>
       <r>   -2.7679    1.0000 </r>
       <r>   -1.4210    1.0000 </r>
       <r>   -1.4210    1.0000 </r>
       <r>   -1.4210    1.0000 </r>
       <r>    2.4609    1.0000 </r>
       <r>    2.4609    1.0000 </r>
       <r>    2.4609    1.0000 </r>
       <r>    2.9067    1.0000 </r>
       <r>    2.9067    1.0000 </r>
       <r>    2.9067    1.0000 </r>
       <r>    4.6260    1.0000 </r>
       <r>    5.4471    1.0000 </r>
       <r>    5.4471    1.0000 </r>
       <r>    6.4423    0.0000 </r>
       <r>    6.4423    0.0000 </r>
       <r>    6.4423    0.0000 </r>
       <r>    7.0838    0.0000 </r>
       <r>    7.0838    0.0000 </r>
       <r>    7.0838    0.0000 </r>
       <r>    8.1568    0.0000 </r>
       <r>    8.4093    0.0000 </r>
       <r>    8.4093    0.0000 </r>
      </set>
      <set comment="kpoint 23">
       <r>   -5.9882    1.0000 </r>
       <r>   -3.3757    1.0000 </r>
       <r>   -2.7251    1.0000 </r>
       <r>   -2.7251    1.0000 </r>
       <r>   -1.4200    1.0000 </r>
       <r>   -1.4200    1.0000 </r>
       <r>   -0.7073    1.0000 </r>
       <r>    2.1403    1.0000 </r>
       <r>    2.1403    1.0000 </r>
       <r>    2.5830    1.0000 </r>
       <r>    2.8675    1.0000 </r>
       <r>    2.8675    1.0000 </r>
       <r>    3.0015    1.0000 </r>
       <r>    4.0629    1.0000 </r>
       <r>    5.1291    1.0000 </r>
       <r>    5.3187    1.0000 </r>
       <r>    6.4931    0.0000 </r>
       <r>    6.7136    0.0000 </r>
       <r>    6.7136    0.0000 </r>
       <r>    7.3119    0.0000 </r>
       <r>    7.7321    0.0000 </r>
       <r>    7.7321    0.0000 </r>
       <r>    8.1234    0.0000 </r>
       <r>    8.4269    0.0000 </r>
       <r>    8.8375    0.0000 </r>
      </set>
      <set comment="kpoint 24">
       <r>   -5.8124    1.0000 </r>
       <r>   -3.9333    1.0000 </r>
       <r>   -2.6646    1.0000 </r>
       <r>   -2.6646    1.0000 </r>
       <r>   -1.4238    1.0000 </r>
       <r>   -1.4238    1.0000 </r>
       <r>    0.0208    1.0000 </r>
       <r>    1.8664    1.0000 </r>
       <r>    1.8664    1.0000 </r>
       <r>    2.7001    1.0000 </r>
       <r>    2.7001    1.0000 </r>
       <r>    2.7879    1.0000 </r>
       <r>    3.1585    1.0000 </r>
       <r>    3.4522    1.0000 </r>
       <r>    4.7391    1.0000 </r>
       <r>    4.9120    1.0000 </r>
       <r>    6.5993    0.0000 </r>
       <r>    7.2880    0.0000 </r>
       <r>    7.2880    0.0000 </r>
       <r>    7.6672    0.0000 </r>
       <r>    7.8863    0.0000 </r>
       <r>    8.5393    0.0000 </r>
       <r>    8.5393    0.0000 </r>
       <r>    8.8493    0.0000 </r>
       <r>    9.4080    0.0000 </r>
      </set>
      <set comment="kpoint 25">
       <r>   -5.5676    1.0000 </r>
       <r>   -4.4351    1.0000 </r>
       <r>   -2.6035    1.0000 </r>
       <r>   -2.6035    1.0000 </r>
       <r>   -1.4339    1.0000 </r>
       <r>   -1.4339    1.0000 </r>
       <r>    0.7490    1.0000 </r>
       <r>    1.6790    1.0000 </r>
       <r>    1.6790    1.0000 </r>
       <r>    2.5159    1.0000 </r>
       <r>    2.5159    1.0000 </r>
       <r>    2.8158    1.0000 </r>
       <r>    3.0766    1.0000 </r>
       <r>    3.3755    1.0000 </r>
       <r>    4.3438    1.0000 </r>
       <r>    4.4027    1.0000 </r>
       <r>    6.7668    0.0000 </r>
       <r>    7.5758    0.0000 </r>
       <r>    8.0697    0.0000 </r>
       <r>    8.0697    0.0000 </r>
       <r>    8.1352    0.0000 </r>
       <r>    9.3994    0.0000 </r>
       <r>    9.4436    0.0000 </r>
       <r>    9.4436    0.0000 </r>
       <r>   10.0509    0.0000 </r>
      </set>
      <set comment="kpoint 26">
       <r>   -5.2551    1.0000 </r>
       <r>   -4.8768    1.0000 </r>
       <r>   -2.5641    1.0000 </r>
       <r>   -2.5641    1.0000 </r>
       <r>   -1.4438    1.0000 </r>
       <r>   -1.4438    1.0000 </r>
       <r>    1.4635    1.0000 </r>
       <r>    1.5879    1.0000 </r>
       <r>    1.5879    1.0000 </r>
       <r>    2.1537    1.0000 </r>
       <r>    2.4005    1.0000 </r>
       <r>    2.4005    1.0000 </r>
       <r>    3.4490    1.0000 </r>
       <r>    3.6495    1.0000 </r>
       <r>    3.8982    1.0000 </r>
       <r>    3.9753    1.0000 </r>
       <r>    6.9927    0.0000 </r>
       <r>    7.2679    0.0000 </r>
       <r>    8.6973    0.0000 </r>
       <r>    8.9739    0.0000 </r>
       <r>    8.9739    0.0000 </r>
       <r>    9.2900    0.0000 </r>
       <r>    9.9497    0.0000 </r>
       <r>    9.9497    0.0000 </r>
       <r>   10.4366    0.0000 </r>
      </set>
      <set comment="kpoint 27">
       <r>   -5.8833    1.0000 </r>
       <r>   -3.3119    1.0000 </r>
       <r>   -3.3119    1.0000 </r>
       <r>   -2.7154    1.0000 </r>
       <r>   -1.4123    1.0000 </r>
       <r>   -0.7590    1.0000 </r>
       <r>   -0.7590    1.0000 </r>
       <r>    1.8228    1.0000 </r>
       <r>    2.2850    1.0000 </r>
       <r>    2.2850    1.0000 </r>
       <r>    2.9767    1.0000 </r>
       <r>    2.9767    1.0000 </r>
       <r>    3.0732    1.0000 </r>
       <r>    3.5082    1.0000 </r>
       <r>    4.8803    1.0000 </r>
       <r>    5.3689    1.0000 </r>
       <r>    6.6623    0.0000 </r>
       <r>    6.8024    0.0000 </r>
       <r>    6.8024    0.0000 </r>
       <r>    7.9114    0.0000 </r>
       <r>    7.9114    0.0000 </r>
       <r>    8.1187    0.0000 </r>
       <r>    8.4771    0.0000 </r>
       <r>    8.5749    0.0000 </r>
       <r>    8.8587    0.0000 </r>
      </set>
      <set comment="kpoint 28">
       <r>   -5.7090    1.0000 </r>
       <r>   -3.8563    1.0000 </r>
       <r>   -3.2122    1.0000 </r>
       <r>   -2.7181    1.0000 </r>
       <r>   -1.3900    1.0000 </r>
       <r>   -0.8496    1.0000 </r>
       <r>   -0.0989    1.0000 </r>
       <r>    1.6049    1.0000 </r>
       <r>    2.0171    1.0000 </r>
       <r>    2.5232    1.0000 </r>
       <r>    2.8566    1.0000 </r>
       <r>    2.9255    1.0000 </r>
       <r>    3.0873    1.0000 </r>
       <r>    3.1619    1.0000 </r>
       <r>    4.4819    1.0000 </r>
       <r>    5.1498    1.0000 </r>
       <r>    6.9488    0.0000 </r>
       <r>    6.9764    0.0000 </r>
       <r>    7.3851    0.0000 </r>
       <r>    8.1674    0.0000 </r>
       <r>    8.2088    0.0000 </r>
       <r>    8.6313    0.0000 </r>
       <r>    8.6938    0.0000 </r>
       <r>    9.2948    0.0000 </r>
       <r>    9.3355    0.0000 </r>
      </set>
      <set comment="kpoint 29">
       <r>   -5.4666    1.0000 </r>
       <r>   -4.3488    1.0000 </r>
       <r>   -3.0875    1.0000 </r>
       <r>   -2.7547    1.0000 </r>
       <r>   -1.3377    1.0000 </r>
       <r>   -0.9745    1.0000 </r>
       <r>    0.5436    1.0000 </r>
       <r>    1.5070    1.0000 </r>
       <r>    1.7985    1.0000 </r>
       <r>    2.3417    1.0000 </r>
       <r>    2.7542    1.0000 </r>
       <r>    2.8444    1.0000 </r>
       <r>    2.9702    1.0000 </r>
       <r>    3.4295    1.0000 </r>
       <r>    4.0571    1.0000 </r>
       <r>    4.7179    1.0000 </r>
       <r>    7.1490    0.0000 </r>
       <r>    7.5968    0.0000 </r>
       <r>    7.9670    0.0000 </r>
       <r>    8.1648    0.0000 </r>
       <r>    8.6193    0.0000 </r>
       <r>    9.0461    0.0000 </r>
       <r>    9.5699    0.0000 </r>
       <r>    9.8999    0.0000 </r>
       <r>   10.2470    0.0000 </r>
      </set>
      <set comment="kpoint 30">
       <r>   -5.1575    1.0000 </r>
       <r>   -4.7839    1.0000 </r>
       <r>   -2.9548    1.0000 </r>
       <r>   -2.8365    1.0000 </r>
       <r>   -1.2439    1.0000 </r>
       <r>   -1.1151    1.0000 </r>
       <r>    1.1610    1.0000 </r>
       <r>    1.5232    1.0000 </r>
       <r>    1.6294    1.0000 </r>
       <r>    1.7568    1.0000 </r>
       <r>    2.7421    1.0000 </r>
       <r>    2.8283    1.0000 </r>
       <r>    3.2247    1.0000 </r>
       <r>    3.6346    1.0000 </r>
       <r>    3.7878    1.0000 </r>
       <r>    4.2318    1.0000 </r>
       <r>    7.3963    0.0000 </r>
       <r>    7.6779    0.0000 </r>
       <r>    8.4182    0.0000 </r>
       <r>    9.0512    0.0000 </r>
       <r>    9.1217    0.0000 </r>
       <r>    9.3961    0.0000 </r>
       <r>    9.4879    0.0000 </r>
       <r>   10.0541    0.0000 </r>
       <r>   10.0750    0.0000 </r>
      </set>
      <set comment="kpoint 31">
       <r>   -5.5376    1.0000 </r>
       <r>   -3.7321    1.0000 </r>
       <r>   -3.7321    1.0000 </r>
       <r>   -2.8223    1.0000 </r>
       <r>   -1.3136    1.0000 </r>
       <r>   -0.2871    1.0000 </r>
       <r>   -0.2871    1.0000 </r>
       <r>    1.4665    1.0000 </r>
       <r>    2.2510    1.0000 </r>
       <r>    2.2510    1.0000 </r>
       <r>    2.3717    1.0000 </r>
       <r>    3.1261    1.0000 </r>
       <r>    3.1261    1.0000 </r>
       <r>    3.3412    1.0000 </r>
       <r>    4.0826    1.0000 </r>
       <r>    5.1980    1.0000 </r>
       <r>    6.9764    0.0000 </r>
       <r>    7.5418    0.0000 </r>
       <r>    7.5418    0.0000 </r>
       <r>    8.2630    0.0000 </r>
       <r>    8.8570    0.0000 </r>
       <r>    8.9538    0.0000 </r>
       <r>    8.9538    0.0000 </r>
       <r>    9.2023    0.0000 </r>
       <r>   10.2183    0.0000 </r>
      </set>
      <set comment="kpoint 32">
       <r>   -5.2993    1.0000 </r>
       <r>   -4.2078    1.0000 </r>
       <r>   -3.5680    1.0000 </r>
       <r>   -2.9788    1.0000 </r>
       <r>   -1.1812    1.0000 </r>
       <r>   -0.5198    1.0000 </r>
       <r>    0.2529    1.0000 </r>
       <r>    1.4557    1.0000 </r>
       <r>    1.8267    1.0000 </r>
       <r>    1.9842    1.0000 </r>
       <r>    2.5460    1.0000 </r>
       <r>    3.1354    1.0000 </r>
       <r>    3.4018    1.0000 </r>
       <r>    3.5091    1.0000 </r>
       <r>    3.6639    1.0000 </r>
       <r>    4.9389    1.0000 </r>
       <r>    7.3372    0.0000 </r>
       <r>    7.7501    0.0000 </r>
       <r>    8.3176    0.0000 </r>
       <r>    8.3726    0.0000 </r>
       <r>    8.8528    0.0000 </r>
       <r>    9.3194    0.0000 </r>
       <r>    9.6751    0.0000 </r>
       <r>    9.6904    0.0000 </r>
       <r>    9.9898    0.0000 </r>
      </set>
      <set comment="kpoint 33">
       <r>   -4.9962    1.0000 </r>
       <r>   -4.6311    1.0000 </r>
       <r>   -3.3754    1.0000 </r>
       <r>   -3.1714    1.0000 </r>
       <r>   -0.9936    1.0000 </r>
       <r>   -0.7654    1.0000 </r>
       <r>    0.7764    1.0000 </r>
       <r>    1.2969    1.0000 </r>
       <r>    1.5564    1.0000 </r>
       <r>    1.7426    1.0000 </r>
       <r>    2.8851    1.0000 </r>
       <r>    3.2129    1.0000 </r>
       <r>    3.2600    1.0000 </r>
       <r>    3.3259    1.0000 </r>
       <r>    3.9817    1.0000 </r>
       <r>    4.4885    1.0000 </r>
       <r>    7.9948    0.0000 </r>
       <r>    7.9962    0.0000 </r>
       <r>    8.2485    0.0000 </r>
       <r>    8.8410    0.0000 </r>
       <r>    9.1274    0.0000 </r>
       <r>    9.2250    0.0000 </r>
       <r>    9.6081    0.0000 </r>
       <r>    9.8310    0.0000 </r>
       <r>   10.2078    0.0000 </r>
      </set>
      <set comment="kpoint 34">
       <r>   -5.0675    1.0000 </r>
       <r>   -4.0170    1.0000 </r>
       <r>   -4.0170    1.0000 </r>
       <r>   -3.2441    1.0000 </r>
       <r>   -0.9685    1.0000 </r>
       <r>   -0.0749    1.0000 </r>
       <r>   -0.0749    1.0000 </r>
       <r>    1.3199    1.0000 </r>
       <r>    1.5220    1.0000 </r>
       <r>    2.2281    1.0000 </r>
       <r>    2.2281    1.0000 </r>
       <r>    3.2571    1.0000 </r>
       <r>    3.6201    1.0000 </r>
       <r>    3.6201    1.0000 </r>
       <r>    3.6943    1.0000 </r>
       <r>    4.9115    1.0000 </r>
       <r>    7.3821    0.0000 </r>
       <r>    8.3891    0.0000 </r>
       <r>    8.5156    0.0000 </r>
       <r>    8.5156    0.0000 </r>
       <r>    9.2673    0.0000 </r>
       <r>    9.2930    0.0000 </r>
       <r>    9.2930    0.0000 </r>
       <r>    9.4909    0.0000 </r>
       <r>   10.1749    0.0000 </r>
      </set>
      <set comment="kpoint 35">
       <r>   -4.7737    1.0000 </r>
       <r>   -4.4216    1.0000 </r>
       <r>   -3.7840    1.0000 </r>
       <r>   -3.5206    1.0000 </r>
       <r>   -0.7057    1.0000 </r>
       <r>   -0.4027    1.0000 </r>
       <r>    0.3724    1.0000 </r>
       <r>    0.8349    1.0000 </r>
       <r>    1.6880    1.0000 </r>
       <r>    1.9317    1.0000 </r>
       <r>    2.5257    1.0000 </r>
       <r>    2.8718    1.0000 </r>
       <r>    3.7342    1.0000 </r>
       <r>    3.7886    1.0000 </r>
       <r>    4.1439    1.0000 </r>
       <r>    4.6144    1.0000 </r>
       <r>    7.7729    0.0000 </r>
       <r>    8.4435    0.0000 </r>
       <r>    8.4935    0.0000 </r>
       <r>    8.6762    0.0000 </r>
       <r>    8.9471    0.0000 </r>
       <r>    9.0973    0.0000 </r>
       <r>    9.4051    0.0000 </r>
       <r>   10.1238    0.0000 </r>
       <r>   10.3708    0.0000 </r>
      </set>
      <set comment="kpoint 36">
       <r>   -4.4933    1.0000 </r>
       <r>   -4.1608    1.0000 </r>
       <r>   -4.1608    1.0000 </r>
       <r>   -3.8564    1.0000 </r>
       <r>   -0.3803    1.0000 </r>
       <r>   -0.0186    1.0000 </r>
       <r>   -0.0186    1.0000 </r>
       <r>    0.3937    1.0000 </r>
       <r>    1.9046    1.0000 </r>
       <r>    2.1901    1.0000 </r>
       <r>    2.1901    1.0000 </r>
       <r>    2.5080    1.0000 </r>
       <r>    4.1047    1.0000 </r>
       <r>    4.2107    1.0000 </r>
       <r>    4.2107    1.0000 </r>
       <r>    4.5293    1.0000 </r>
       <r>    7.8354    0.0000 </r>
       <r>    8.2157    0.0000 </r>
       <r>    8.2157    0.0000 </r>
       <r>    8.2335    0.0000 </r>
       <r>    9.6275    0.0000 </r>
       <r>    9.6275    0.0000 </r>
       <r>    9.8195    0.0000 </r>
       <r>    9.9289    0.0000 </r>
       <r>   10.5199    0.0000 </r>
      </set>
      <set comment="kpoint 37">
       <r>   -5.7794    1.0000 </r>
       <r>   -3.2641    1.0000 </r>
       <r>   -3.2641    1.0000 </r>
       <r>   -3.2641    1.0000 </r>
       <r>   -0.8327    1.0000 </r>
       <r>   -0.8327    1.0000 </r>
       <r>   -0.8327    1.0000 </r>
       <r>    2.0259    1.0000 </r>
       <r>    2.0259    1.0000 </r>
       <r>    2.0259    1.0000 </r>
       <r>    2.9663    1.0000 </r>
       <r>    3.1643    1.0000 </r>
       <r>    3.1643    1.0000 </r>
       <r>    3.1643    1.0000 </r>
       <r>    5.1124    1.0000 </r>
       <r>    5.1124    1.0000 </r>
       <r>    6.7790    0.0000 </r>
       <r>    6.7790    0.0000 </r>
       <r>    6.7790    0.0000 </r>
       <r>    7.8350    0.0000 </r>
       <r>    8.6251    0.0000 </r>
       <r>    8.6251    0.0000 </r>
       <r>    8.6251    0.0000 </r>
       <r>    8.8763    0.0000 </r>
       <r>    8.8763    0.0000 </r>
      </set>
      <set comment="kpoint 38">
       <r>   -5.6070    1.0000 </r>
       <r>   -3.7883    1.0000 </r>
       <r>   -3.1960    1.0000 </r>
       <r>   -3.1960    1.0000 </r>
       <r>   -0.9416    1.0000 </r>
       <r>   -0.9416    1.0000 </r>
       <r>   -0.2622    1.0000 </r>
       <r>    1.8578    1.0000 </r>
       <r>    1.8578    1.0000 </r>
       <r>    2.3632    1.0000 </r>
       <r>    2.4035    1.0000 </r>
       <r>    3.1898    1.0000 </r>
       <r>    3.1898    1.0000 </r>
       <r>    3.3147    1.0000 </r>
       <r>    4.7781    1.0000 </r>
       <r>    4.9860    1.0000 </r>
       <r>    6.9666    0.0000 </r>
       <r>    7.0950    0.0000 </r>
       <r>    7.0950    0.0000 </r>
       <r>    7.8889    0.0000 </r>
       <r>    8.7592    0.0000 </r>
       <r>    8.8747    0.0000 </r>
       <r>    9.2882    0.0000 </r>
       <r>    9.4681    0.0000 </r>
       <r>    9.4681    0.0000 </r>
      </set>
      <set comment="kpoint 39">
       <r>   -5.3674    1.0000 </r>
       <r>   -4.2681    1.0000 </r>
       <r>   -3.1267    1.0000 </r>
       <r>   -3.1267    1.0000 </r>
       <r>   -1.0543    1.0000 </r>
       <r>   -1.0543    1.0000 </r>
       <r>    0.2819    1.0000 </r>
       <r>    1.7795    1.0000 </r>
       <r>    1.7795    1.0000 </r>
       <r>    1.8548    1.0000 </r>
       <r>    2.8219    1.0000 </r>
       <r>    3.1112    1.0000 </r>
       <r>    3.1112    1.0000 </r>
       <r>    3.5217    1.0000 </r>
       <r>    4.4245    1.0000 </r>
       <r>    4.5436    1.0000 </r>
       <r>    7.2136    0.0000 </r>
       <r>    7.7068    0.0000 </r>
       <r>    7.7068    0.0000 </r>
       <r>    7.9908    0.0000 </r>
       <r>    8.8570    0.0000 </r>
       <r>    9.2269    0.0000 </r>
       <r>    9.7601    0.0000 </r>
       <r>   10.2686    0.0000 </r>
       <r>   10.2686    0.0000 </r>
      </set>
      <set comment="kpoint 40">
       <r>   -5.0624    1.0000 </r>
       <r>   -4.6947    1.0000 </r>
       <r>   -3.0817    1.0000 </r>
       <r>   -3.0817    1.0000 </r>
       <r>   -1.1274    1.0000 </r>
       <r>   -1.1274    1.0000 </r>
       <r>    0.8055    1.0000 </r>
       <r>    1.3247    1.0000 </r>
       <r>    1.7576    1.0000 </r>
       <r>    1.7576    1.0000 </r>
       <r>    3.0358    1.0000 </r>
       <r>    3.0358    1.0000 </r>
       <r>    3.3721    1.0000 </r>
       <r>    3.7810    1.0000 </r>
       <r>    3.9678    1.0000 </r>
       <r>    4.0857    1.0000 </r>
       <r>    7.5011    0.0000 </r>
       <r>    7.7939    0.0000 </r>
       <r>    8.5178    0.0000 </r>
       <r>    8.5178    0.0000 </r>
       <r>    9.3868    0.0000 </r>
       <r>    9.4618    0.0000 </r>
       <r>    9.4618    0.0000 </r>
       <r>    9.6471    0.0000 </r>
       <r>   10.2357    0.0000 </r>
      </set>
      <set comment="kpoint 41">
       <r>   -5.4379    1.0000 </r>
       <r>   -3.6820    1.0000 </r>
       <r>   -3.6820    1.0000 </r>
       <r>   -3.1884    1.0000 </r>
       <r>   -1.0469    1.0000 </r>
       <r>   -0.4916    1.0000 </r>
       <r>   -0.4916    1.0000 </r>
       <r>    1.8005    1.0000 </r>
       <r>    1.8604    1.0000 </r>
       <r>    2.2532    1.0000 </r>
       <r>    2.2532    1.0000 </r>
       <r>    3.3635    1.0000 </r>
       <r>    3.3635    1.0000 </r>
       <r>    3.4249    1.0000 </r>
       <r>    4.5310    1.0000 </r>
       <r>    5.0320    1.0000 </r>
       <r>    7.0988    0.0000 </r>
       <r>    7.2856    0.0000 </r>
       <r>    7.2856    0.0000 </r>
       <r>    7.7762    0.0000 </r>
       <r>    8.9569    0.0000 </r>
       <r>    9.2422    0.0000 </r>
       <r>    9.6921    0.0000 </r>
       <r>    9.6921    0.0000 </r>
       <r>   10.3361    0.0000 </r>
      </set>
      <set comment="kpoint 42">
       <r>   -5.2033    1.0000 </r>
       <r>   -4.1380    1.0000 </r>
       <r>   -3.5493    1.0000 </r>
       <r>   -3.2140    1.0000 </r>
       <r>   -1.1070    1.0000 </r>
       <r>   -0.7357    1.0000 </r>
       <r>   -0.0532    1.0000 </r>
       <r>    1.3388    1.0000 </r>
       <r>    1.8386    1.0000 </r>
       <r>    2.1646    1.0000 </r>
       <r>    2.7434    1.0000 </r>
       <r>    3.3574    1.0000 </r>
       <r>    3.4927    1.0000 </r>
       <r>    3.6149    1.0000 </r>
       <r>    4.1538    1.0000 </r>
       <r>    4.8052    1.0000 </r>
       <r>    7.4499    0.0000 </r>
       <r>    7.5339    0.0000 </r>
       <r>    7.8820    0.0000 </r>
       <r>    7.9456    0.0000 </r>
       <r>    8.8896    0.0000 </r>
       <r>    9.5441    0.0000 </r>
       <r>    9.8532    0.0000 </r>
       <r>   10.0102    0.0000 </r>
       <r>   10.2133    0.0000 </r>
      </set>
      <set comment="kpoint 43">
       <r>   -4.9057    1.0000 </r>
       <r>   -4.5488    1.0000 </r>
       <r>   -3.4098    1.0000 </r>
       <r>   -3.2898    1.0000 </r>
       <r>   -1.0761    1.0000 </r>
       <r>   -0.9444    1.0000 </r>
       <r>    0.3881    1.0000 </r>
       <r>    0.8487    1.0000 </r>
       <r>    1.9388    1.0000 </r>
       <r>    2.0594    1.0000 </r>
       <r>    3.2588    1.0000 </r>
       <r>    3.3794    1.0000 </r>
       <r>    3.4450    1.0000 </r>
       <r>    3.7334    1.0000 </r>
       <r>    3.9570    1.0000 </r>
       <r>    4.3844    1.0000 </r>
       <r>    7.8085    0.0000 </r>
       <r>    8.0187    0.0000 </r>
       <r>    8.0905    0.0000 </r>
       <r>    8.6725    0.0000 </r>
       <r>    8.9233    0.0000 </r>
       <r>    9.0417    0.0000 </r>
       <r>    9.5664    0.0000 </r>
       <r>    9.5914    0.0000 </r>
       <r>   10.0054    0.0000 </r>
      </set>
      <set comment="kpoint 44">
       <r>   -4.9766    1.0000 </r>
       <r>   -3.9658    1.0000 </r>
       <r>   -3.9658    1.0000 </r>
       <r>   -3.3604    1.0000 </r>
       <r>   -1.0732    1.0000 </r>
       <r>   -0.3947    1.0000 </r>
       <r>   -0.3947    1.0000 </r>
       <r>    0.8454    1.0000 </r>
       <r>    1.9731    1.0000 </r>
       <r>    2.5882    1.0000 </r>
       <r>    2.5882    1.0000 </r>
       <r>    3.7145    1.0000 </r>
       <r>    3.7145    1.0000 </r>
       <r>    3.7642    1.0000 </r>
       <r>    3.7872    1.0000 </r>
       <r>    4.8394    1.0000 </r>
       <r>    7.4853    0.0000 </r>
       <r>    7.9664    0.0000 </r>
       <r>    8.1005    0.0000 </r>
       <r>    8.1005    0.0000 </r>
       <r>    9.1407    0.0000 </r>
       <r>    9.3269    0.0000 </r>
       <r>    9.3269    0.0000 </r>
       <r>    9.3334    0.0000 </r>
       <r>   10.6334    0.0000 </r>
      </set>
      <set comment="kpoint 45">
       <r>   -4.6906    1.0000 </r>
       <r>   -4.3509    1.0000 </r>
       <r>   -3.7643    1.0000 </r>
       <r>   -3.5533    1.0000 </r>
       <r>   -0.9330    1.0000 </r>
       <r>   -0.6985    1.0000 </r>
       <r>   -0.0221    1.0000 </r>
       <r>    0.3904    1.0000 </r>
       <r>    2.1627    1.0000 </r>
       <r>    2.3801    1.0000 </r>
       <r>    3.0027    1.0000 </r>
       <r>    3.4006    1.0000 </r>
       <r>    3.8138    1.0000 </r>
       <r>    3.8579    1.0000 </r>
       <r>    4.1521    1.0000 </r>
       <r>    4.5765    1.0000 </r>
       <r>    7.8520    0.0000 </r>
       <r>    8.1554    0.0000 </r>
       <r>    8.2713    0.0000 </r>
       <r>    8.4652    0.0000 </r>
       <r>    8.9098    0.0000 </r>
       <r>    8.9496    0.0000 </r>
       <r>    8.9761    0.0000 </r>
       <r>    9.7387    0.0000 </r>
       <r>    9.7606    0.0000 </r>
      </set>
      <set comment="kpoint 46">
       <r>   -4.4224    1.0000 </r>
       <r>   -4.1091    1.0000 </r>
       <r>   -4.1091    1.0000 </r>
       <r>   -3.8364    1.0000 </r>
       <r>   -0.7005    1.0000 </r>
       <r>   -0.3916    1.0000 </r>
       <r>   -0.3916    1.0000 </r>
       <r>   -0.0267    1.0000 </r>
       <r>    2.4236    1.0000 </r>
       <r>    2.7106    1.0000 </r>
       <r>    2.7106    1.0000 </r>
       <r>    3.0529    1.0000 </r>
       <r>    4.1492    1.0000 </r>
       <r>    4.2406    1.0000 </r>
       <r>    4.2406    1.0000 </r>
       <r>    4.5290    1.0000 </r>
       <r>    7.8782    0.0000 </r>
       <r>    8.0962    0.0000 </r>
       <r>    8.1814    0.0000 </r>
       <r>    8.1814    0.0000 </r>
       <r>    9.1665    0.0000 </r>
       <r>    9.1665    0.0000 </r>
       <r>    9.4133    0.0000 </r>
       <r>    9.5013    0.0000 </r>
       <r>    9.8739    0.0000 </r>
      </set>
      <set comment="kpoint 47">
       <r>   -5.2730    1.0000 </r>
       <r>   -3.6105    1.0000 </r>
       <r>   -3.6105    1.0000 </r>
       <r>   -3.6105    1.0000 </r>
       <r>   -0.7411    1.0000 </r>
[...]
       <r>   -1.0095    1.0000 </r>
       <r>   -0.1018    1.0000 </r>
       <r>    3.2309    1.0000 </r>
       <r>    3.2309    1.0000 </r>
       <r>    3.2309    1.0000 </r>
       <r>    4.0247    1.0000 </r>
       <r>    4.0247    1.0000 </r>
       <r>    4.0247    1.0000 </r>
       <r>    4.5645    1.0000 </r>
       <r>    4.5645    1.0000 </r>
       <r>    7.2286    0.0000 </r>
       <r>    7.7628    0.0000 </r>
       <r>    7.7628    0.0000 </r>
       <r>    7.7628    0.0000 </r>
       <r>    9.0792    0.0000 </r>
       <r>    9.0792    0.0000 </r>
       <r>    9.2281    0.0000 </r>
       <r>    9.2281    0.0000 </r>
       <r>    9.2281    0.0000 </r>
      </set>
      <set comment="kpoint 54">
       <r>   -4.3800    1.0000 </r>
       <r>   -4.1033    1.0000 </r>
       <r>   -3.7701    1.0000 </r>
       <r>   -3.7701    1.0000 </r>
       <r>   -1.1628    1.0000 </r>
       <r>   -1.1628    1.0000 </r>
       <r>   -0.7997    1.0000 </r>
       <r>   -0.4912    1.0000 </r>
       <r>    3.3698    1.0000 </r>
       <r>    3.3698    1.0000 </r>
       <r>    3.8735    1.0000 </r>
       <r>    4.1259    1.0000 </r>
       <r>    4.1259    1.0000 </r>
       <r>    4.1986    1.0000 </r>
       <r>    4.3843    1.0000 </r>
       <r>    4.3859    1.0000 </r>
       <r>    7.3657    0.0000 </r>
       <r>    7.6822    0.0000 </r>
       <r>    7.8885    0.0000 </r>
       <r>    7.8885    0.0000 </r>
       <r>    8.8615    0.0000 </r>
       <r>    8.8615    0.0000 </r>
       <r>    8.8817    0.0000 </r>
       <r>    8.9211    0.0000 </r>
       <r>    9.2179    0.0000 </r>
      </set>
      <set comment="kpoint 55">
       <r>   -4.1740    1.0000 </r>
       <r>   -3.9607    1.0000 </r>
       <r>   -3.9607    1.0000 </r>
       <r>   -3.8412    1.0000 </r>
       <r>   -1.1915    1.0000 </r>
       <r>   -1.0626    1.0000 </r>
       <r>   -1.0626    1.0000 </r>
       <r>   -0.8297    1.0000 </r>
       <r>    3.6994    1.0000 </r>
       <r>    3.8821    1.0000 </r>
       <r>    3.8821    1.0000 </r>
       <r>    4.2005    1.0000 </r>
       <r>    4.2976    1.0000 </r>
       <r>    4.3256    1.0000 </r>
       <r>    4.3256    1.0000 </r>
       <r>    4.4954    1.0000 </r>
       <r>    7.3172    0.0000 </r>
       <r>    7.5854    0.0000 </r>
       <r>    7.5854    0.0000 </r>
       <r>    7.6530    0.0000 </r>
       <r>    8.8676    0.0000 </r>
       <r>    8.8676    0.0000 </r>
       <r>    8.9399    0.0000 </r>
       <r>    9.0281    0.0000 </r>
       <r>    9.0325    0.0000 </r>
      </set>
      <set comment="kpoint 56">
       <r>   -4.0312    1.0000 </r>
       <r>   -3.9119    1.0000 </r>
       <r>   -3.9119    1.0000 </r>
       <r>   -3.9119    1.0000 </r>
       <r>   -1.2251    1.0000 </r>
       <r>   -1.2251    1.0000 </r>
       <r>   -1.2251    1.0000 </r>
       <r>   -1.0966    1.0000 </r>
       <r>    4.2323    1.0000 </r>
       <r>    4.2323    1.0000 </r>
       <r>    4.2323    1.0000 </r>
       <r>    4.3788    1.0000 </r>
       <r>    4.3788    1.0000 </r>
       <r>    4.3788    1.0000 </r>
       <r>    4.4477    1.0000 </r>
       <r>    4.4477    1.0000 </r>
       <r>    7.0934    0.0000 </r>
       <r>    7.2749    0.0000 </r>
       <r>    7.2749    0.0000 </r>
       <r>    7.2749    0.0000 </r>
       <r>    8.9157    0.0000 </r>
       <r>    8.9157    0.0000 </r>
       <r>    8.9157    0.0000 </r>
       <r>    8.9769    0.0000 </r>
       <r>    8.9770    0.0000 </r>
      </set>
     </set>
    </set>
   </array>
  </eigenvalues>
  <separator name="orbital magnetization" >
   <v name="MAGDIPOLOUT">      0.00000000      0.00000000      0.00000000</v>
  </separator>
  <dos>
   <i name="efermi">      5.91385803 </i>
   <total>
    <array>
     <dimension dim="1">gridpoints</dimension>
     <dimension dim="2">spin</dimension>
     <field>energy</field>
     <field>total</field>
     <field>integrated</field>
     <set>
      <set comment="spin 1">
       <r>    -7.2003     0.0000     0.0000 </r>
       <r>    -7.1368     0.0000     0.0000 </r>
       <r>    -7.0733     0.0000     0.0000 </r>
       <r>    -7.0098     0.0000     0.0000 </r>
       <r>    -6.9463     0.0000     0.0000 </r>
       <r>    -6.8828     0.0000     0.0000 </r>
       <r>    -6.8193     0.0000     0.0000 </r>
       <r>    -6.7558     0.0000     0.0000 </r>
       <r>    -6.6923     0.0000     0.0000 </r>
       <r>    -6.6289     0.0000     0.0000 </r>
       <r>    -6.5654     0.0000     0.0000 </r>
       <r>    -6.5019     0.0000     0.0000 </r>
       <r>    -6.4384     0.0000     0.0000 </r>
       <r>    -6.3749     0.0004     0.0000 </r>
       <r>    -6.3114     0.0053     0.0004 </r>
       <r>    -6.2479     0.0344     0.0025 </r>
       <r>    -6.1844     0.1238     0.0104 </r>
       <r>    -6.1209     0.2754     0.0279 </r>
       <r>    -6.0574     0.4454     0.0562 </r>
       <r>    -5.9939     0.5836     0.0932 </r>
       <r>    -5.9304     0.6713     0.1359 </r>
       <r>    -5.8669     0.7846     0.1857 </r>
       <r>    -5.8034     0.8934     0.2424 </r>
       <r>    -5.7399     0.9431     0.3023 </r>
       <r>    -5.6764     0.9686     0.3638 </r>
       <r>    -5.6129     1.0556     0.4308 </r>
       <r>    -5.5494     1.2267     0.5087 </r>
       <r>    -5.4859     1.2919     0.5907 </r>
       <r>    -5.4224     1.2029     0.6671 </r>
       <r>    -5.3589     1.1893     0.7426 </r>
       <r>    -5.2954     1.4200     0.8328 </r>
       <r>    -5.2319     1.6094     0.9350 </r>
       <r>    -5.1684     1.5798     1.0353 </r>
       <r>    -5.1049     1.4875     1.1297 </r>
       <r>    -5.0414     1.5513     1.2282 </r>
       <r>    -4.9779     1.6581     1.3335 </r>
       <r>    -4.9145     1.6717     1.4397 </r>
       <r>    -4.8510     1.7982     1.5539 </r>
       <r>    -4.7875     2.0546     1.6843 </r>
       <r>    -4.7240     2.1060     1.8180 </r>
       <r>    -4.6605     1.9201     1.9400 </r>
       <r>    -4.5970     1.7891     2.0536 </r>
       <r>    -4.5335     1.8564     2.1714 </r>
       <r>    -4.4700     2.1628     2.3088 </r>
       <r>    -4.4065     2.5639     2.4716 </r>
       <r>    -4.3430     2.6140     2.6375 </r>
       <r>    -4.2795     2.3420     2.7862 </r>
       <r>    -4.2160     2.3631     2.9363 </r>
       <r>    -4.1525     2.6175     3.1025 </r>
       <r>    -4.0890     2.6764     3.2724 </r>
       <r>    -4.0255     2.7523     3.4472 </r>
       <r>    -3.9620     3.0094     3.6383 </r>
       <r>    -3.8985     3.3191     3.8490 </r>
       <r>    -3.8350     3.7780     4.0889 </r>
       <r>    -3.7715     4.0693     4.3473 </r>
       <r>    -3.7080     3.5631     4.5736 </r>
       <r>    -3.6445     2.8237     4.7528 </r>
       <r>    -3.5810     2.9799     4.9421 </r>
       <r>    -3.5175     3.3787     5.1566 </r>
       <r>    -3.4540     2.9972     5.3469 </r>
       <r>    -3.3905     2.6413     5.5146 </r>
       <r>    -3.3270     2.7872     5.6916 </r>
       <r>    -3.2635     3.0453     5.8850 </r>
       <r>    -3.2001     3.3482     6.0976 </r>
       <r>    -3.1366     3.2683     6.3051 </r>
       <r>    -3.0731     2.6227     6.4716 </r>
       <r>    -3.0096     1.8922     6.5918 </r>
       <r>    -2.9461     1.5445     6.6898 </r>
       <r>    -2.8826     1.5482     6.7881 </r>
       <r>    -2.8191     1.8869     6.9079 </r>
       <r>    -2.7556     2.5668     7.0709 </r>
       <r>    -2.6921     2.9277     7.2568 </r>
       <r>    -2.6286     2.5827     7.4208 </r>
       <r>    -2.5651     1.9868     7.5470 </r>
       <r>    -2.5016     1.3638     7.6336 </r>
       <r>    -2.4381     0.8873     7.6899 </r>
       <r>    -2.3746     0.7058     7.7347 </r>
       <r>    -2.3111     0.7048     7.7795 </r>
       <r>    -2.2476     0.7799     7.8290 </r>
       <r>    -2.1841     0.8512     7.8830 </r>
       <r>    -2.1206     0.9341     7.9423 </r>
       <r>    -2.0571     1.0458     8.0088 </r>
       <r>    -1.9936     1.0543     8.0757 </r>
       <r>    -1.9301     0.8451     8.1294 </r>
       <r>    -1.8666     0.5845     8.1665 </r>
       <r>    -1.8031     0.4651     8.1960 </r>
       <r>    -1.7396     0.4521     8.2247 </r>
       <r>    -1.6761     0.5084     8.2570 </r>
       <r>    -1.6126     0.5920     8.2946 </r>
       <r>    -1.5491     0.8966     8.3515 </r>
       <r>    -1.4857     1.9984     8.4784 </r>
       <r>    -1.4222     3.4596     8.6981 </r>
       <r>    -1.3587     3.5792     8.9253 </r>
       <r>    -1.2952     2.6173     9.0915 </r>
       <r>    -1.2317     2.3759     9.2424 </r>
       <r>    -1.1682     3.3198     9.4532 </r>
       <r>    -1.1047     4.7232     9.7531 </r>
       <r>    -1.0412     5.4721    10.1005 </r>
       <r>    -0.9777     5.3575    10.4407 </r>
       <r>    -0.9142     4.6296    10.7347 </r>
       <r>    -0.8507     3.6682    10.9676 </r>
       <r>    -0.7872     3.7208    11.2039 </r>
       <r>    -0.7237     4.3238    11.4784 </r>
       <r>    -0.6602     3.6579    11.7107 </r>
       <r>    -0.5967     2.1266    11.8457 </r>
       <r>    -0.5332     1.5926    11.9468 </r>
       <r>    -0.4697     2.2343    12.0887 </r>
       <r>    -0.4062     2.8642    12.2706 </r>
       <r>    -0.3427     2.5822    12.4345 </r>
       <r>    -0.2792     1.8253    12.5504 </r>
       <r>    -0.2157     1.3529    12.6363 </r>
       <r>    -0.1522     1.3837    12.7242 </r>
       <r>    -0.0887     2.2274    12.8656 </r>
       <r>    -0.0252     3.0637    13.0602 </r>
       <r>     0.0383     2.6292    13.2271 </r>
       <r>     0.1018     1.5162    13.3234 </r>
       <r>     0.1653     0.8346    13.3764 </r>
       <r>     0.2287     0.7865    13.4263 </r>
       <r>     0.2922     1.2064    13.5029 </r>
       <r>     0.3557     1.8918    13.6230 </r>
       <r>     0.4192     2.1282    13.7582 </r>
       <r>     0.4827     1.5106    13.8541 </r>
       <r>     0.5462     0.9884    13.9168 </r>
       <r>     0.6097     0.8456    13.9705 </r>
       <r>     0.6732     0.7484    14.0181 </r>
       <r>     0.7367     0.9990    14.0815 </r>
       <r>     0.8002     1.7152    14.1904 </r>
       <r>     0.8637     2.0398    14.3199 </r>
       <r>     0.9272     1.4377    14.4112 </r>
       <r>     0.9907     0.7106    14.4563 </r>
       <r>     1.0542     0.4424    14.4844 </r>
       <r>     1.1177     0.4749    14.5146 </r>
       <r>     1.1812     0.6147    14.5536 </r>
       <r>     1.2447     0.9720    14.6153 </r>
       <r>     1.3082     1.7532    14.7266 </r>
       <r>     1.3717     2.4154    14.8800 </r>
       <r>     1.4352     2.7664    15.0557 </r>
       <r>     1.4987     3.4331    15.2737 </r>
       <r>     1.5622     4.1599    15.5378 </r>
       <r>     1.6257     4.3179    15.8120 </r>
       <r>     1.6892     4.1201    16.0736 </r>
       <r>     1.7527     4.3892    16.3523 </r>
       <r>     1.8162     5.1242    16.6776 </r>
       <r>     1.8797     5.2934    17.0138 </r>
       <r>     1.9431     4.6108    17.3065 </r>
       <r>     2.0066     3.8170    17.5489 </r>
       <r>     2.0701     3.3636    17.7625 </r>
       <r>     2.1336     3.5583    17.9884 </r>
       <r>     2.1971     4.2412    18.2577 </r>
       <r>     2.2606     4.6394    18.5523 </r>
       <r>     2.3241     4.6450    18.8472 </r>
       <r>     2.3876     4.7175    19.1468 </r>
       <r>     2.4511     4.7435    19.4480 </r>
       <r>     2.5146     4.6405    19.7426 </r>
       <r>     2.5781     4.5357    20.0306 </r>
       <r>     2.6416     4.3466    20.3066 </r>
       <r>     2.7051     4.6017    20.5988 </r>
       <r>     2.7686     5.4443    20.9445 </r>
       <r>     2.8321     6.1834    21.3371 </r>
       <r>     2.8956     6.4743    21.7482 </r>
       <r>     2.9591     6.2806    22.1470 </r>
       <r>     3.0226     6.0979    22.5342 </r>
       <r>     3.0861     6.0579    22.9189 </r>
       <r>     3.1496     5.7916    23.2866 </r>
       <r>     3.2131     5.3775    23.6281 </r>
       <r>     3.2766     5.2937    23.9642 </r>
       <r>     3.3401     5.9585    24.3425 </r>
       <r>     3.4036     6.6545    24.7651 </r>
       <r>     3.4671     6.1639    25.1565 </r>
       <r>     3.5306     4.9596    25.4714 </r>
       <r>     3.5941     4.4577    25.7544 </r>
       <r>     3.6575     5.0601    26.0757 </r>
       <r>     3.7210     5.7372    26.4400 </r>
       <r>     3.7845     5.8601    26.8121 </r>
       <r>     3.8480     5.4564    27.1586 </r>
       <r>     3.9115     4.9132    27.4705 </r>
       <r>     3.9750     4.6816    27.7678 </r>
       <r>     4.0385     4.4755    28.0520 </r>
       <r>     4.1020     4.6305    28.3460 </r>
       <r>     4.1655     5.3957    28.6886 </r>
       <r>     4.2290     5.6040    29.0444 </r>
       <r>     4.2925     4.8015    29.3493 </r>
       <r>     4.3560     3.9099    29.5976 </r>
       <r>     4.4195     3.6172    29.8273 </r>
       <r>     4.4830     3.9770    30.0798 </r>
       <r>     4.5465     4.3079    30.3533 </r>
       <r>     4.6100     3.6716    30.5865 </r>
       <r>     4.6735     2.6292    30.7534 </r>
       <r>     4.7370     2.1442    30.8896 </r>
       <r>     4.8005     2.0929    31.0224 </r>
       <r>     4.8640     2.0384    31.1519 </r>
       <r>     4.9275     2.0825    31.2841 </r>
       <r>     4.9910     2.0564    31.4147 </r>
       <r>     5.0545     1.6282    31.5181 </r>
       <r>     5.1180     1.2854    31.5997 </r>
       <r>     5.1815     1.2293    31.6777 </r>
       <r>     5.2450     1.0924    31.7471 </r>
       <r>     5.3085     0.9599    31.8080 </r>
       <r>     5.3719     0.9457    31.8681 </r>
       <r>     5.4354     0.8410    31.9215 </r>
       <r>     5.4989     0.5927    31.9591 </r>
       <r>     5.5624     0.3462    31.9811 </r>
       <r>     5.6259     0.1870    31.9930 </r>
       <r>     5.6894     0.0839    31.9983 </r>
       <r>     5.7529     0.0231    31.9998 </r>
       <r>     5.8164     0.0033    32.0000 </r>
       <r>     5.8799     0.0002    32.0000 </r>
       <r>     5.9434     0.0000    32.0000 </r>
       <r>     6.0069     0.0002    32.0000 </r>
       <r>     6.0704     0.0029    32.0002 </r>
       <r>     6.1339     0.0208    32.0015 </r>
       <r>     6.1974     0.0760    32.0063 </r>
       <r>     6.2609     0.1555    32.0162 </r>
       <r>     6.3244     0.2662    32.0331 </r>
       <r>     6.3879     0.5750    32.0696 </r>
       <r>     6.4514     1.0519    32.1364 </r>
       <r>     6.5149     1.2696    32.2170 </r>
       <r>     6.5784     1.2438    32.2960 </r>
       <r>     6.6419     1.3624    32.3825 </r>
       <r>     6.7054     1.5953    32.4838 </r>
       <r>     6.7689     1.7104    32.5924 </r>
       <r>     6.8324     1.6227    32.6955 </r>
       <r>     6.8959     1.7217    32.8048 </r>
       <r>     6.9594     2.3882    32.9564 </r>
       <r>     7.0229     2.9065    33.1410 </r>
       <r>     7.0863     2.8128    33.3196 </r>
       <r>     7.1498     2.5152    33.4793 </r>
       <r>     7.2133     2.5375    33.6404 </r>
       <r>     7.2768     3.2429    33.8463 </r>
       <r>     7.3403     3.8838    34.0929 </r>
       <r>     7.4038     3.8114    34.3349 </r>
       <r>     7.4673     3.5780    34.5621 </r>
       <r>     7.5308     3.7958    34.8031 </r>
       <r>     7.5943     4.2830    35.0751 </r>
       <r>     7.6578     4.8211    35.3812 </r>
       <r>     7.7213     5.6365    35.7391 </r>
       <r>     7.7848     6.3616    36.1431 </r>
       <r>     7.8483     6.6592    36.5659 </r>
       <r>     7.9118     6.9216    37.0054 </r>
       <r>     7.9753     6.8456    37.4401 </r>
       <r>     8.0388     5.9179    37.8158 </r>
       <r>     8.1023     5.1924    38.1455 </r>
       <r>     8.1658     5.4978    38.4946 </r>
       <r>     8.2293     5.8327    38.8650 </r>
       <r>     8.2928     5.1308    39.1907 </r>
       <r>     8.3563     4.2228    39.4589 </r>
       <r>     8.4198     4.2720    39.7301 </r>
       <r>     8.4833     4.7203    40.0299 </r>
       <r>     8.5468     4.8918    40.3405 </r>
       <r>     8.6103     4.9245    40.6532 </r>
       <r>     8.6738     4.8298    40.9598 </r>
       <r>     8.7373     4.5228    41.2470 </r>
       <r>     8.8007     5.0653    41.5686 </r>
       <r>     8.8642     7.1762    42.0243 </r>
       <r>     8.9277     9.0332    42.5979 </r>
       <r>     8.9912     8.7021    43.1504 </r>
       <r>     9.0547     7.1613    43.6051 </r>
       <r>     9.1182     6.1574    43.9961 </r>
       <r>     9.1817     5.9985    44.3770 </r>
       <r>     9.2452     6.4042    44.7836 </r>
       <r>     9.3087     6.9035    45.2220 </r>
       <r>     9.3722     7.0080    45.6670 </r>
       <r>     9.4357     6.5322    46.0817 </r>
       <r>     9.4992     5.6692    46.4417 </r>
       <r>     9.5627     5.1038    46.7658 </r>
       <r>     9.6262     4.9773    47.0818 </r>
       <r>     9.6897     4.6632    47.3779 </r>
       <r>     9.7532     4.1101    47.6389 </r>
       <r>     9.8167     3.5862    47.8666 </r>
       <r>     9.8802     3.5015    48.0889 </r>
       <r>     9.9437     3.8114    48.3309 </r>
       <r>    10.0072     3.9879    48.5842 </r>
       <r>    10.0707     3.7521    48.8224 </r>
       <r>    10.1342     3.4395    49.0408 </r>
       <r>    10.1977     3.5768    49.2679 </r>
       <r>    10.2612     3.5854    49.4956 </r>
       <r>    10.3247     2.7135    49.6679 </r>
       <r>    10.3882     1.7006    49.7758 </r>
       <r>    10.4517     1.1003    49.8457 </r>
       <r>    10.5151     0.7736    49.8948 </r>
       <r>    10.5786     0.5598    49.9304 </r>
       <r>    10.6421     0.3818    49.9546 </r>
       <r>    10.7056     0.2530    49.9707 </r>
       <r>    10.7691     0.1808    49.9822 </r>
       <r>    10.8326     0.1437    49.9913 </r>
       <r>    10.8961     0.0914    49.9971 </r>
       <r>    10.9596     0.0366    49.9994 </r>
       <r>    11.0231     0.0082    49.9999 </r>
       <r>    11.0866     0.0010    50.0000 </r>
       <r>    11.1501     0.0001    50.0000 </r>
       <r>    11.2136     0.0000    50.0000 </r>
       <r>    11.2771     0.0000    50.0000 </r>
       <r>    11.3406     0.0000    50.0000 </r>
       <r>    11.4041     0.0000    50.0000 </r>
       <r>    11.4676     0.0000    50.0000 </r>
       <r>    11.5311     0.0000    50.0000 </r>
       <r>    11.5946     0.0000    50.0000 </r>
       <r>    11.6581     0.0000    50.0000 </r>
       <r>    11.7216     0.0000    50.0000 </r>
       <r>    11.7851     0.0000    50.0000 </r>
       <r>    11.8486     0.0000    50.0000 </r>
      </set>
     </set>
    </array>
   </total>
  </dos>
 </calculation>
 <structure name="finalpos" >
  <crystal>
   <varray name="basis" >
    <v>       5.46957989      -0.00000000      -0.00000000 </v>
    <v>      -0.00000000       5.46957989      -0.00000000 </v>
    <v>       0.00000000       0.00000000       5.46957989 </v>
   </varray>
   <i name="volume">    163.62961609 </i>
   <varray name="rec_basis" >
    <v>       0.18282940       0.00000000      -0.00000000 </v>
    <v>       0.00000000       0.18282940      -0.00000000 </v>
    <v>       0.00000000       0.00000000       0.18282940 </v>
   </varray>
  </crystal>
  <varray name="positions" >
   <v>      -0.00000000       0.00000000      -0.00000000 </v>
   <v>      -0.00000000       0.50000000       0.50000000 </v>
   <v>       0.50000000      -0.00000000       0.50000000 </v>
   <v>       0.50000000       0.50000000      -0.00000000 </v>
   <v>       0.25000000       0.25000000       0.25000000 </v>
   <v>       0.75000000       0.75000000       0.25000000 </v>
   <v>       0.75000000       0.25000000       0.75000000 </v>
   <v>       0.25000000       0.75000000       0.75000000 </v>
  </varray>
 </structure>
</modeling>
