diamond Si                              
   5.43100000000000     
     1.020967    0.000000   -0.000000
     0.000000    1.020967    0.000000
     0.000000    0.000000    1.020967
   Si
     8
Direct
  0.000000  0.000000  0.000000
  0.000000  0.500000  0.500000
  0.500000  0.000000  0.500000
  0.500000  0.500000  0.000000
  0.250000  0.250000  0.250000
  0.750000  0.750000  0.250000
  0.750000  0.250000  0.750000
  0.250000  0.750000  0.750000
 
   56   56   56
 -30.685     -26.111     -13.421      4.6004      24.230      41.815      54.646      61.442      62.393      58.825    
  52.656      45.728      38.909      32.570      26.927      22.076      18.018      14.695      12.020      9.8901    
  8.2087      6.8895      5.8613      5.0684      4.4686      4.0308      3.7328      3.5597      3.5029      3.5597    
  3.7328      4.0308      4.4686      5.0684      5.8613      6.8895      8.2087      9.8901      12.020      14.695    
  18.018      22.076      26.927      32.570      38.909      45.728      52.656      58.825      62.393      61.442    
  54.646      41.815      24.230      4.6004     -13.421     -26.111     -26.111     -21.695     -9.4539      7.9059    
  26.765      43.582      55.736      62.006      62.605      58.848      52.619      45.698      38.898      32.581    
  26.959      22.124      18.076      14.760      12.088      9.9583      8.2758      6.9547      5.9245      5.1297    
  4.5283      4.0892      3.7903      3.6166      3.5597      3.6166      3.7903      4.0892      4.5283      5.1297    
  5.9245      6.9547      8.2758      9.9583      12.088      14.760      18.076      22.124      26.959      32.581    
  38.898      45.698      52.619      58.848      62.605      62.006      55.736      43.582      26.765      7.9059    
 -9.4539     -21.695     -13.421     -9.4539      1.5225      17.017      33.710      48.369      58.635      63.451    
  63.091      58.836      52.471      45.585      38.851      32.606      27.048      22.263      18.250      14.955    
  12.291      10.164      8.4787      7.1526      6.1166      5.3163      4.7101      4.2673      3.9656      3.7903    
  3.7328      3.7903      3.9656      4.2673      4.7101      5.3163      6.1166      7.1526      8.4787      10.164    
  12.291      14.955      18.250      22.263      27.048      32.606      38.851      45.585      52.471      58.836    
  63.091      63.451      58.635      48.369      33.710      17.017      1.5225     -9.4539      4.6004      7.9059    
  17.017      29.768      43.290      54.815      62.366      65.132      63.465      58.587      52.119      45.329    
  38.727      32.617      27.177      22.482      18.533      15.276      12.632      10.510      8.8228      7.4899    
  6.4454      5.6365      5.0226      4.5735      4.2673      4.0892      4.0308      4.0892      4.2673      4.5735    
  5.0226      5.6365      6.4454      7.4899      8.8228      10.510      12.632      15.276      18.533      22.482    
  27.177      32.617      38.727      45.329      52.119      58.587      63.465      65.132      62.366      54.815    
  43.290      29.768      17.017      7.9059      24.230      26.765      33.710      43.290      53.173      61.145    
  65.680      66.240      63.259      57.868      51.448      44.853      38.475      32.578      27.319      22.765    
  18.914      15.719      13.110      11.003      9.3169      7.9780      6.9238      6.1041      5.4801      5.0226    
  4.7101      4.5283      4.4686      4.5283      4.7101      5.0226      5.4801      6.1041      6.9238      7.9780    
  9.3169      11.003      13.110      15.719      18.914      22.765      27.319      32.578      38.475      44.853    
  51.448      57.868      63.259      66.240      65.680      61.145      53.173      43.290      33.710      26.765    
  41.815      43.582      48.369      54.815      61.145      65.715      67.453      66.090      62.115      56.533    
  50.359      44.088      38.043      32.451      27.447      23.090      19.380      16.280      13.727      11.649    
  9.9733      8.6327      7.5703      6.7395      6.1041      5.6365      5.3163      5.1297      5.0684      5.1297    
  5.3163      5.6365      6.1041      6.7395      7.5703      8.6327      9.9733      11.649      13.727      16.280    
  19.380      23.090      27.447      32.451      38.043      44.088      50.359      56.533      62.115      66.090    
  67.453      65.715      61.145      54.815      48.369      43.582      54.646      55.736      58.635      62.366    
  65.680      67.453      67.026      64.346      59.920      54.556      48.801      42.992      37.397      32.206    
  27.536      23.439      19.921      16.953      14.486      12.459      10.808      9.4754      8.4099      7.5703    
  6.9238      6.4454      6.1166      5.9245      5.8613      5.9245      6.1166      6.4454      6.9238      7.5703    
  8.4099      9.4754      10.808      12.459      14.486      16.953      19.921      23.439      27.536      32.206    
  37.397      42.992      48.801      54.556      59.920      64.346      67.026      67.453      65.680      62.366    
  58.635      55.736      61.442      62.006      63.451      65.132      66.240      66.090      64.346      61.108    
  56.835      51.960      46.780      41.562      36.526      31.827      27.567      23.797      20.526      17.738    
  15.395      13.447      11.843      10.534      9.4754      8.6327      7.9780      7.4899      7.1526      6.9547    
  6.8895      6.9547      7.1526      7.4899      7.9780      8.6327      9.4754      10.534      11.843      13.447    
  15.395      17.738      20.526      23.797      27.567      31.827      36.526      41.562      46.780      51.960    
  56.835      61.108      64.346      66.090      66.240      65.132      63.451      62.006      62.393      62.605    
  63.091      63.465      63.259      62.115      59.920      56.835      53.074      48.841      44.358      39.834    
  35.443      31.315      27.536      24.156      21.192      18.637      16.463      14.634      13.107      11.843    
  10.808      9.9733      9.3169      8.8228      8.4787      8.2758      8.2087      8.2758      8.4787      8.8228    
  9.3169      9.9733      10.808      11.843      13.107      14.634      16.463      18.637      21.192      24.156    
  27.536      31.315      35.443      39.834      44.358      48.841      53.074      56.835      59.920      62.115    
  63.259      63.465      63.091      62.605      58.825      58.848      58.836      58.587      57.868      56.533    
  54.556      51.960      48.841      45.344      41.633      37.868      34.183      30.684      27.447      24.520    
  21.925      19.660      17.709      16.044      14.634      13.447      12.459      11.649      11.003      10.510    
  10.164      9.9583      9.8901      9.9583      10.164      10.510      11.003      11.649      12.459      13.447    
  14.634      16.044      17.709      19.660      21.925      24.520      27.447      30.684      34.183      37.868    
  41.633      45.344      48.841      51.960      54.556      56.533      57.868      58.587      58.836      58.848    
  52.656      52.619      52.471      52.119      51.448      50.359      48.801      46.780      44.358      41.633    
  38.723      35.742      32.794      29.964      27.319      24.902      22.735      20.823      19.154      17.709    
  16.463      15.395      14.486      13.727      13.110      12.632      12.291      12.088      12.020      12.088    
  12.291      12.632      13.110      13.727      14.486      15.395      16.463      17.709      19.154      20.823    
  22.735      24.902      27.319      29.964      32.794      35.742      38.723      41.633      44.358      46.780    
  48.801      50.359      51.448      52.119      52.471      52.619      45.728      45.698      45.585      45.329    
  44.853      44.088      42.992      41.562      39.834      37.868      35.742      33.537      31.332      29.194    
  27.177      25.318      23.639      22.144      20.823      19.660      18.637      17.738      16.953      16.280    
  15.719      15.276      14.955      14.760      14.695      14.760      14.955      15.276      15.719      16.280    
  16.953      17.738      18.637      19.660      20.823      22.144      23.639      25.318      27.177      29.194    
  31.332      33.537      35.742      37.868      39.834      41.562      42.992      44.088      44.853      45.329    
  45.585      45.698      38.909      38.898      38.851      38.727      38.475      38.043      37.397      36.526    
  35.443      34.183      32.794      31.332      29.854      28.412      27.048      25.791      24.655      23.639    
  22.735      21.925      21.192      20.526      19.921      19.380      18.914      18.533      18.250      18.076    
  18.018      18.076      18.250      18.533      18.914      19.380      19.921      20.526      21.192      21.925    
  22.735      23.639      24.655      25.791      27.048      28.412      29.854      31.332      32.794      34.183    
  35.443      36.526      37.397      38.043      38.475      38.727      38.851      38.898      32.570      32.581    
  32.606      32.617      32.578      32.451      32.206      31.827      31.315      30.684      29.964      29.194    
  28.412      27.657      26.959      26.335      25.791      25.318      24.902      24.520      24.156      23.797    
  23.439      23.090      22.765      22.482      22.263      22.124      22.076      22.124      22.263      22.482    
  22.765      23.090      23.439      23.797      24.156      24.520      24.902      25.318      25.791      26.335    
  26.959      27.657      28.412      29.194      29.964      30.684      31.315      31.827      32.206      32.451    
  32.578      32.617      32.606      32.581      26.927      26.959      27.048      27.177      27.319      27.447    
  27.536      27.567      27.536      27.447      27.319      27.177      27.048      26.959      26.927      26.959    
  27.048      27.177      27.319      27.447      27.536      27.567      27.536      27.447      27.319      27.177    
  27.048      26.959      26.927      26.959      27.048      27.177      27.319      27.447      27.536      27.567    
  27.536      27.447      27.319      27.177      27.048      26.959      26.927      26.959      27.048      27.177    
  27.319      27.447      27.536      27.567      27.536      27.447      27.319      27.177      27.048      26.959    
  22.076      22.124      22.263      22.482      22.765      23.090      23.439      23.797      24.156      24.520    
  24.902      25.318      25.791      26.335      26.959      27.657      28.412      29.194      29.964      30.684    
  31.315      31.827      32.206      32.451      32.578      32.617      32.606      32.581      32.570      32.581    
  32.606      32.617      32.578      32.451      32.206      31.827      31.315      30.684      29.964      29.194    
  28.412      27.657      26.959      26.335      25.791      25.318      24.902      24.520      24.156      23.797    
  23.439      23.090      22.765      22.482      22.263      22.124      18.018      18.076      18.250      18.533    
  18.914      19.380      19.921      20.526      21.192      21.925      22.735      23.639      24.655      25.791    
  27.048      28.412      29.854      31.332      32.794      34.183      35.443      36.526      37.397      38.043    
  38.475      38.727      38.851      38.898      38.909      38.898      38.851      38.727      38.475      38.043    
  37.397      36.526      35.443      34.183      32.794      31.332      29.854      28.412      27.048      25.791    
  24.655      23.639      22.735      21.925      21.192      20.526      19.921      19.380      18.914      18.533    
  18.250      18.076      14.695      14.760      14.955      15.276      15.719      16.280      16.953      17.738    
  18.637      19.660      20.823      22.144      23.639      25.318      27.177      29.194      31.332      33.537    
  35.742      37.868      39.834      41.562      42.992      44.088      44.853      45.329      45.585      45.698    
  45.728      45.698      45.585      45.329      44.853      44.088      42.992      41.562      39.834      37.868    
  35.742      33.537      31.332      29.194      27.177      25.318      23.639      22.144      20.823      19.660    
  18.637      17.738      16.953      16.280      15.719      15.276      14.955      14.760      12.020      12.088    
  12.291      12.632      13.110      13.727      14.486      15.395      16.463      17.709      19.154      20.823    
  22.735      24.902      27.319      29.964      32.794      35.742      38.723      41.633      44.358      46.780    
  48.801      50.359      51.448      52.119      52.471      52.619      52.656      52.619      52.471      52.119    
  51.448      50.359      48.801      46.780      44.358      41.633      38.723      35.742      32.794      29.964    
  27.319      24.902      22.735      20.823      19.154      17.709      16.463      15.395      14.486      13.727    
  13.110      12.632      12.291      12.088      9.8901      9.9583      10.164      10.510      11.003      11.649    
  12.459      13.447      14.634      16.044      17.709      19.660      21.925      24.520      27.447      30.684    
  34.183      37.868      41.633      45.344      48.841      51.960      54.556      56.533      57.868      58.587    
  58.836      58.848      58.825      58.848      58.836      58.587      57.868      56.533      54.556      51.960    
  48.841      45.344      41.633      37.868      34.183      30.684      27.447      24.520      21.925      19.660    
  17.709      16.044      14.634      13.447      12.459      11.649      11.003      10.510      10.164      9.9583    
  8.2087      8.2758      8.4787      8.8228      9.3169      9.9733      10.808      11.843      13.107      14.634    
  16.463      18.637      21.192      24.156      27.536      31.315      35.443      39.834      44.358      48.841    
  53.074      56.835      59.920      62.115      63.259      63.465      63.091      62.605      62.393      62.605    
  63.091      63.465      63.259      62.115      59.920      56.835      53.074      48.841      44.358      39.834    
  35.443      31.315      27.536      24.156      21.192      18.637      16.463      14.634      13.107      11.843    
  10.808      9.9733      9.3169      8.8228      8.4787      8.2758      6.8895      6.9547      7.1526      7.4899    
  7.9780      8.6327      9.4754      10.534      11.843      13.447      15.395      17.738      20.526      23.797    
  27.567      31.827      36.526      41.562      46.780      51.960      56.835      61.108      64.346      66.090    
  66.240      65.132      63.451      62.006      61.442      62.006      63.451      65.132      66.240      66.090    
  64.346      61.108      56.835      51.960      46.780      41.562      36.526      31.827      27.567      23.797    
  20.526      17.738      15.395      13.447      11.843      10.534      9.4754      8.6327      7.9780      7.4899    
  7.1526      6.9547      5.8613      5.9245      6.1166      6.4454      6.9238      7.5703      8.4099      9.4754    
  10.808      12.459      14.486      16.953      19.921      23.439      27.536      32.206      37.397      42.992    
  48.801      54.556      59.920      64.346      67.026      67.453      65.680      62.366      58.635      55.736    
  54.646      55.736      58.635      62.366      65.680      67.453      67.026      64.346      59.920      54.556    
  48.801      42.992      37.397      32.206      27.536      23.439      19.921      16.953      14.486      12.459    
  10.808      9.4754      8.4099      7.5703      6.9238      6.4454      6.1166      5.9245      5.0684      5.1297    
  5.3163      5.6365      6.1041      6.7395      7.5703      8.6327      9.9733      11.649      13.727      16.280    
  19.380      23.090      27.447      32.451      38.043      44.088      50.359      56.533      62.115      66.090    
  67.453      65.715      61.145      54.815      48.369      43.582      41.815      43.582      48.369      54.815    
  61.145      65.715      67.453      66.090      62.115      56.533      50.359      44.088      38.043      32.451    
  27.447      23.090      19.380      16.280      13.727      11.649      9.9733      8.6327      7.5703      6.7395    
  6.1041      5.6365      5.3163      5.1297      4.4686      4.5283      4.7101      5.0226      5.4801      6.1041    
  6.9238      7.9780      9.3169      11.003      13.110      15.719      18.914      22.765      27.319      32.578    
  38.475      44.853      51.448      57.868      63.259      66.240      65.680      61.145      53.173      43.290    
  33.710      26.765      24.230      26.765      33.710      43.290      53.173      61.145      65.680      66.240    
  63.259      57.868      51.448      44.853      38.475      32.578      27.319      22.765      18.914      15.719    
  13.110      11.003      9.3169      7.9780      6.9238      6.1041      5.4801      5.0226      4.7101      4.5283    
  4.0308      4.0892      4.2673      4.5735      5.0226      5.6365      6.4454      7.4899      8.8228      10.510    
  12.632      15.276      18.533      22.482      27.177      32.617      38.727      45.329      52.119      58.587    
  63.465      65.132      62.366      54.815      43.290      29.768      17.017      7.9059      4.6004      7.9059    
  17.017      29.768      43.290      54.815      62.366      65.132      63.465      58.587      52.119      45.329    
  38.727      32.617      27.177      22.482      18.533      15.276      12.632      10.510      8.8228      7.4899    
  6.4454      5.6365      5.0226      4.5735      4.2673      4.0892      3.7328      3.7903      3.9656      4.2673    
  4.7101      5.3163      6.1166      7.1526      8.4787      10.164      12.291      14.955      18.250      22.263    
  27.048      32.606      38.851      45.585      52.471      58.836      63.091      63.451      58.635      48.369    
  33.710      17.017      1.5225     -9.4539     -13.421     -9.4539      1.5225      17.017      33.710      48.369    
  58.635      63.451      63.091      58.836      52.471      45.585      38.851      32.606      27.048      22.263    
  18.250      14.955      12.291      10.164      8.4787      7.1526      6.1166      5.3163      4.7101      4.2673    
  3.9656      3.7903      3.5597      3.6166      3.7903      4.0892      4.5283      5.1297      5.9245      6.9547    
  8.2758      9.9583      12.088      14.760      18.076      22.124      26.959      32.581      38.898      45.698    
  52.619      58.848      62.605      62.006      55.736      43.582      26.765      7.9059     -9.4539     -21.695    
 -26.111     -21.695     -9.4539      7.9059      26.765      43.582      55.736      62.006      62.605      58.848    
  52.619      45.698      38.898      32.581      26.959      22.124      18.076      14.760      12.088      9.9583    
  8.2758      6.9547      5.9245      5.1297      4.5283      4.0892      3.7903      3.6166      3.5029      3.5597    
  3.7328      4.0308      4.4686      5.0684      5.8613      6.8895      8.2087      9.8901      12.020      14.695    
  18.018      22.076      26.927      32.570      38.909      45.728      52.656      58.825      62.393      61.442    
  54.646      41.815      24.230      4.6004     -13.421     -26.111     -30.685     -26.111     -13.421      4.6004    
  24.230      41.815      54.646      61.442      62.393      58.825      52.656      45.728      38.909      32.570    
  26.927      22.076      18.018      14.695      12.020      9.8901      8.2087      6.8895      5.8613      5.0684    
  4.4686      4.0308      3.7328      3.5597      3.5597      3.6166      3.7903      4.0892      4.5283      5.1297    
  5.9245      6.9547      8.2758      9.9583      12.088      14.760      18.076      22.124      26.959      32.581    
  38.898      45.698      52.619      58.848      62.605      62.006      55.736      43.582      26.765      7.9059    
 -9.4539     -21.695     -26.111     -21.695     -9.4539      7.9059      26.765      43.582      55.736      62.006    
  62.605      58.848      52.619      45.698      38.898      32.581      26.959      22.124      18.076      14.760    
  12.088      9.9583      8.2758      6.9547      5.9245      5.1297      4.5283      4.0892      3.7903      3.6166    
  3.7328      3.7903      3.9656      4.2673      4.7101      5.3163      6.1166      7.1526      8.4787      10.164    
  12.291      14.955      18.250      22.263      27.048      32.606      38.851      45.585      52.471      58.836    
  63.091      63.451      58.635      48.369      33.710      17.017      1.5225     -9.4539     -13.421     -9.4539    
  1.5225      17.017      33.710      48.369      58.635      63.451      63.091      58.836      52.471      45.585    
  38.851      32.606      27.048      22.263      18.250      14.955      12.291      10.164      8.4787      7.1526    
  6.1166      5.3163      4.7101      4.2673      3.9656      3.7903      4.0308      4.0892      4.2673      4.5735    
  5.0226      5.6365      6.4454      7.4899      8.8228      10.510      12.632      15.276      18.533      22.482    
  27.177      32.617      38.727      45.329      52.119      58.587      63.465      65.132      62.366      54.815    
  43.290      29.768      17.017      7.9059      4.6004      7.9059      17.017      29.768      43.290      54.815    
  62.366      65.132      63.465      58.587      52.119      45.329      38.727      32.617      27.177      22.482    
  18.533      15.276      12.632      10.510      8.8228      7.4899      6.4454      5.6365      5.0226      4.5735    
  4.2673      4.0892      4.4686      4.5283      4.7101      5.0226      5.4801      6.1041      6.9238      7.9780    
  9.3169      11.003      13.110      15.719      18.914      22.765      27.319      32.578      38.475      44.853    
  51.448      57.868      63.259      66.240      65.680      61.145      53.173      43.290      33.710      26.765    
  24.230      26.765      33.710      43.290      53.173      61.145      65.680      66.240      63.259      57.868    
  51.448      44.853      38.475      32.578      27.319      22.765      18.914      15.719      13.110      11.003    
  9.3169      7.9780      6.9238      6.1041      5.4801      5.0226      4.7101      4.5283      5.0684      5.1297    
  5.3163      5.6365      6.1041      6.7395      7.5703      8.6327      9.9733      11.649      13.727      16.280    
  19.380      23.090      27.447      32.451      38.043      44.088      50.359      56.533      62.115      66.090    
  67.453      65.715      61.145      54.815      48.369      43.582      41.815      43.582      48.369      54.815    
  61.145      65.715      67.453      66.090      62.115      56.533      50.359      44.088      38.043      32.451    
  27.447      23.090      19.380      16.280      13.727      11.649      9.9733      8.6327      7.5703      6.7395    
  6.1041      5.6365      5.3163      5.1297      5.8613      5.9245      6.1166      6.4454      6.9238      7.5703    
  8.4099      9.4754      10.808      12.459      14.486      16.953      19.921      23.439      27.536      32.206    
  37.397      42.992      48.801      54.556      59.920      64.346      67.026      67.453      65.680      62.366    
  58.635      55.736      54.646      55.736      58.635      62.366      65.680      67.453      67.026      64.346    
  59.920      54.556      48.801      42.992      37.397      32.206      27.536      23.439      19.921      16.953    
  14.486      12.459      10.808      9.4754      8.4099      7.5703      6.9238      6.4454      6.1166      5.9245    
  6.8895      6.9547      7.1526      7.4899      7.9780      8.6327      9.4754      10.534      11.843      13.447    
  15.395      17.738      20.526      23.797      27.567      31.827      36.526      41.562      46.780      51.960    
  56.835      61.108      64.346      66.090      66.240      65.132      63.451      62.006      61.442      62.006    
  63.451      65.132      66.240      66.090      64.346      61.108      56.835      51.960      46.780      41.562    
  36.526      31.827      27.567      23.797      20.526      17.738      15.395      13.447      11.843      10.534    
  9.4754      8.6327      7.9780      7.4899      7.1526      6.9547      8.2087      8.2758      8.4787      8.8228    
  9.3169      9.9733      10.808      11.843      13.107      14.634      16.463      18.637      21.192      24.156    
  27.536      31.315      35.443      39.834      44.358      48.841      53.074      56.835      59.920      62.115    
  63.259      63.465      63.091      62.605      62.393      62.605      63.091      63.465      63.259      62.115    
  59.920      56.835      53.074      48.841      44.358      39.834      35.443      31.315      27.536      24.156    
  21.192      18.637      16.463      14.634      13.107      11.843      10.808      9.9733      9.3169      8.8228    
  8.4787      8.2758      9.8901      9.9583      10.164      10.510      11.003      11.649      12.459      13.447    
  14.634      16.044      17.709      19.660      21.925      24.520      27.447      30.684      34.183      37.868    
  41.633      45.344      48.841      51.960      54.556      56.533      57.868      58.587      58.836      58.848    
  58.825      58.848      58.836      58.587      57.868      56.533      54.556      51.960      48.841      45.344    
  41.633      37.868      34.183      30.684      27.447      24.520      21.925      19.660      17.709      16.044    
  14.634      13.447      12.459      11.649      11.003      10.510      10.164      9.9583      12.020      12.088    
  12.291      12.632      13.110      13.727      14.486      15.395      16.463      17.709      19.154      20.823    
  22.735      24.902      27.319      29.964      32.794      35.742      38.723      41.633      44.358      46.780    
  48.801      50.359      51.448      52.119      52.471      52.619      52.656      52.619      52.471      52.119    
  51.448      50.359      48.801      46.780      44.358      41.633      38.723      35.742      32.794      29.964    
  27.319      24.902      22.735      20.823      19.154      17.709      16.463      15.395      14.486      13.727    
  13.110      12.632      12.291      12.088      14.695      14.760      14.955      15.276      15.719      16.280    
  16.953      17.738      18.637      19.660      20.823      22.144      23.639      25.318      27.177      29.194    
  31.332      33.537      35.742      37.868      39.834      41.562      42.992      44.088      44.853      45.329    
  45.585      45.698      45.728      45.698      45.585      45.329      44.853      44.088      42.992      41.562    
  39.834      37.868      35.742      33.537      31.332      29.194      27.177      25.318      23.639      22.144    
  20.823      19.660      18.637      17.738      16.953      16.280      15.719      15.276      14.955      14.760    
  18.018      18.076      18.250      18.533      18.914      19.380      19.921      20.526      21.192      21.925    
  22.735      23.639      24.655      25.791      27.048      28.412      29.854      31.332      32.794      34.183    
  35.443      36.526      37.397      38.043      38.475      38.727      38.851      38.898      38.909      38.898    
  38.851      38.727      38.475      38.043      37.397      36.526      35.443      34.183      32.794      31.332    
  29.854      28.412      27.048      25.791      24.655      23.639      22.735      21.925      21.192      20.526    
  19.921      19.380      18.914      18.533      18.250      18.076      22.076      22.124      22.263      22.482    
  22.765      23.090      23.439      23.797      24.156      24.520      24.902      25.318      25.791      26.335    
  26.959      27.657      28.412      29.194      29.964      30.684      31.315      31.827      32.206      32.451    
  32.578      32.617      32.606      32.581      32.570      32.581      32.606      32.617      32.578      32.451    
  32.206      31.827      31.315      30.684      29.964      29.194      28.412      27.657      26.959      26.335    
  25.791      25.318      24.902      24.520      24.156      23.797      23.439      23.090      22.765      22.482    
  22.263      22.124      26.927      26.959      27.048      27.177      27.319      27.447      27.536      27.567    
  27.536      27.447      27.319      27.177      27.048      26.959      26.927      26.959      27.048      27.177    
  27.319      27.447      27.536      27.567      27.536      27.447      27.319      27.177      27.048      26.959    
  26.927      26.959      27.048      27.177      27.319      27.447      27.536      27.567      27.536      27.447    
  27.319      27.177      27.048      26.959      26.927      26.959      27.048      27.177      27.319      27.447    
  27.536      27.567      27.536      27.447      27.319      27.177      27.048      26.959      32.570      32.581    
  32.606      32.617      32.578      32.451      32.206      31.827      31.315      30.684      29.964      29.194    
  28.412      27.657      26.959      26.335      25.791      25.318      24.902      24.520      24.156      23.797    
  23.439      23.090      22.765      22.482      22.263      22.124      22.076      22.124      22.263      22.482    