diamond Si                              
   5.43100000000000     
     1.006041    0.000000   -0.000000
     0.000000    1.006041    0.000000
     0.000000    0.000000    1.006041
   Si
     8
Direct
  0.000000 -0.000000  0.000000
  0.000000  0.500000  0.500000
  0.500000 -0.000000  0.500000
  0.500000  0.500000  0.000000
  0.250000  0.250000  0.250000
  0.750000  0.750000  0.250000
  0.750000  0.250000  0.750000
  0.250000  0.750000  0.750000
 
   56   56   56
 -.31053167476E+02 -.26364509164E+02 -.13368114185E+02 0.50527688351E+01 0.25050222485E+02
 0.42866064823E+02 0.55734513752E+02 0.62384178117E+02 0.63067501015E+02 0.59201601989E+02
 0.52790017710E+02 0.45700290195E+02 0.38770052677E+02 0.32364586530E+02 0.26692734133E+02
 0.21837193511E+02 0.17790130820E+02 0.14486663140E+02 0.11832314343E+02 0.97233980253E+01
 0.80607312842E+01 0.67575560183E+01 0.57427605607E+01 0.49607648807E+01 0.43695703028E+01
 0.39382660861E+01 0.36448102691E+01 0.34744154659E+01 0.34185482326E+01 0.34744154659E+01
 0.36448102691E+01 0.39382660861E+01 0.43695703028E+01 0.49607648807E+01 0.57427605607E+01
 0.67575560183E+01 0.80607312842E+01 0.97233980253E+01 0.11832314343E+02 0.14486663140E+02
 0.17790130820E+02 0.21837193511E+02 0.26692734133E+02 0.32364586530E+02 0.38770052677E+02
 0.45700290195E+02 0.52790017710E+02 0.59201601989E+02 0.63067501015E+02 0.62384178117E+02
 0.55734513752E+02 0.42866064823E+02 0.25050222485E+02 0.50527688351E+01 -.13368114185E+02
 -.26364509164E+02 -.26364509164E+02 -.21840875615E+02 -.93103270735E+01 0.84238063498E+01
 0.27623758133E+02 0.44645698507E+02 0.56818921723E+02 0.62932789434E+02 0.63261556773E+02
 0.59209615311E+02 0.52743428087E+02 0.45664072092E+02 0.38755278631E+02 0.32373760801E+02
 0.26723356851E+02 0.21884382372E+02 0.17848495701E+02 0.14551428434E+02 0.11899816254E+02
 0.97911543073E+01 0.81272781336E+01 0.68221967802E+01 0.58053134450E+01 0.50213543903E+01
 0.44284794056E+01 0.39958468725E+01 0.37014387319E+01 0.35304728591E+01 0.34744154659E+01
 0.35304728591E+01 0.37014387319E+01 0.39958468725E+01 0.44284794056E+01 0.50213543903E+01
 0.58053134450E+01 0.68221967802E+01 0.81272781336E+01 0.97911543073E+01 0.11899816254E+02
 0.14551428434E+02 0.17848495701E+02 0.21884382372E+02 0.26723356851E+02 0.32373760801E+02
 0.38755278631E+02 0.45664072092E+02 0.52743428087E+02 0.59209615311E+02 0.63261556773E+02
 0.62932789434E+02 0.56818921723E+02 0.44645698507E+02 0.27623758133E+02 0.84238063498E+01
 -.93103270735E+01 -.21840875615E+02 -.13368114185E+02 -.93103270735E+01 0.19060145602E+01
 0.17705314041E+02 0.34663310688E+02 0.49460949078E+02 0.59696530323E+02 0.64329862337E+02
 0.63694204818E+02 0.59154421008E+02 0.52568366810E+02 0.45533315003E+02 0.38696627237E+02
 0.32391899057E+02 0.26809081482E+02 0.22022071046E+02 0.18021422436E+02 0.14744918910E+02
 0.12102616818E+02 0.99955854370E+01 0.83287301972E+01 0.70183808329E+01 0.59955156298E+01
 0.52058201570E+01 0.46079733488E+01 0.41713793509E+01 0.38741185507E+01 0.37014387319E+01
 0.36448102691E+01 0.37014387319E+01 0.38741185507E+01 0.41713793509E+01 0.46079733488E+01
 0.52058201570E+01 0.59955156298E+01 0.70183808329E+01 0.83287301972E+01 0.99955854370E+01
 0.12102616818E+02 0.14744918910E+02 0.18021422436E+02 0.22022071046E+02 0.26809081482E+02
 0.32391899057E+02 0.38696627237E+02 0.45533315003E+02 0.52568366810E+02 0.59154421008E+02
 0.63694204818E+02 0.64329862337E+02 0.59696530323E+02 0.49460949078E+02 0.34663310688E+02
 0.17705314041E+02 0.19060145602E+01 -.93103270735E+01 0.50527688351E+01 0.84238063498E+01
 0.17705314041E+02 0.30664051821E+02 0.44345914677E+02 0.55916804126E+02 0.63373530910E+02
 0.65923865644E+02 0.63979921797E+02 0.58836909708E+02 0.52175252662E+02 0.45249657348E+02
 0.38555704388E+02 0.32393361390E+02 0.26932746561E+02 0.22239179164E+02 0.18302569868E+02
 0.15064685326E+02 0.12441487458E+02 0.10340052768E+02 0.86704227750E+01 0.73528411618E+01
 0.63210005656E+01 0.55223102463E+01 0.49164523264E+01 0.44733640879E+01 0.41713793509E+01
 0.39958468725E+01 0.39382660861E+01 0.39958468725E+01 0.41713793509E+01 0.44733640879E+01
 0.49164523264E+01 0.55223102463E+01 0.63210005656E+01 0.73528411618E+01 0.86704227750E+01
 0.10340052768E+02 0.12441487458E+02 0.15064685326E+02 0.18302569868E+02 0.22239179164E+02
 0.26932746561E+02 0.32393361390E+02 0.38555704388E+02 0.45249657348E+02 0.52175252662E+02
 0.58836909708E+02 0.63979921797E+02 0.65923865644E+02 0.63373530910E+02 0.55916804126E+02
 0.44345914677E+02 0.30664051821E+02 0.17705314041E+02 0.84238063498E+01 0.25050222485E+02
 0.27623758133E+02 0.34663310688E+02 0.44345914677E+02 0.54278796181E+02 0.62202944962E+02
 0.66581687126E+02 0.66904209067E+02 0.63658176365E+02 0.58035535643E+02 0.51452629096E+02
 0.44738926956E+02 0.38282050308E+02 0.32342970926E+02 0.27069699622E+02 0.22519089375E+02
 0.18682049983E+02 0.15506721432E+02 0.12917525358E+02 0.10829910521E+02 0.91610619645E+01
 0.78367429522E+01 0.67945930314E+01 0.59846644081E+01 0.53683079712E+01 0.49164523264E+01
 0.46079733488E+01 0.44284794056E+01 0.43695703028E+01 0.44284794056E+01 0.46079733488E+01
 0.49164523264E+01 0.53683079712E+01 0.59846644081E+01 0.67945930314E+01 0.78367429522E+01
 0.91610619645E+01 0.10829910521E+02 0.12917525358E+02 0.15506721432E+02 0.18682049983E+02
 0.22519089375E+02 0.27069699622E+02 0.32342970926E+02 0.38282050308E+02 0.44738926956E+02
 0.51452629096E+02 0.58035535643E+02 0.63658176365E+02 0.66904209067E+02 0.66581687126E+02
 0.62202944962E+02 0.54278796181E+02 0.44345914677E+02 0.34663310688E+02 0.27623758133E+02
 0.42866064823E+02 0.44645698507E+02 0.49460949078E+02 0.55916804126E+02 0.62202944962E+02
 0.66651230182E+02 0.68194983964E+02 0.66592936879E+02 0.62382377276E+02 0.56616260397E+02
 0.50306361938E+02 0.43935743151E+02 0.37828076485E+02 0.32204811208E+02 0.27192802090E+02
 0.22842366766E+02 0.19147804897E+02 0.16066086029E+02 0.13532393424E+02 0.11472606075E+02
 0.98128432416E+01 0.84859183175E+01 0.74347108193E+01 0.66129946738E+01 0.59846644081E+01
 0.55223102463E+01 0.52058201570E+01 0.50213543903E+01 0.49607648807E+01 0.50213543903E+01
 0.52058201570E+01 0.55223102463E+01 0.59846644081E+01 0.66129946738E+01 0.74347108193E+01
 0.84859183175E+01 0.98128432416E+01 0.11472606075E+02 0.13532393424E+02 0.16066086029E+02
 0.19147804897E+02 0.22842366766E+02 0.27192802090E+02 0.32204811208E+02 0.37828076485E+02
 0.43935743151E+02 0.50306361938E+02 0.56616260397E+02 0.62382377276E+02 0.66592936879E+02
 0.68194983964E+02 0.66651230182E+02 0.62202944962E+02 0.55916804126E+02 0.49460949078E+02
 0.44645698507E+02 0.55734513752E+02 0.56818921723E+02 0.59696530323E+02 0.63373530910E+02
 0.66581687126E+02 0.68194983964E+02 0.67565280795E+02 0.64671768139E+02 0.60058888125E+02
 0.54554589510E+02 0.48689792306E+02 0.42803245235E+02 0.37161899381E+02 0.31950543494E+02
 0.27277825158E+02 0.23190262116E+02 0.19687873247E+02 0.16738366525E+02 0.14289291247E+02
 0.12278394699E+02 0.10642091611E+02 0.93215642278E+01 0.82662056377E+01 0.74347108193E+01
 0.67945930314E+01 0.63210005656E+01 0.59955156298E+01 0.58053134450E+01 0.57427605607E+01
 0.58053134450E+01 0.59955156298E+01 0.63210005656E+01 0.67945930314E+01 0.74347108193E+01
 0.82662056377E+01 0.93215642278E+01 0.10642091611E+02 0.12278394699E+02 0.14289291247E+02
 0.16738366525E+02 0.19687873247E+02 0.23190262116E+02 0.27277825158E+02 0.31950543494E+02
 0.37161899381E+02 0.42803245235E+02 0.48689792306E+02 0.54554589510E+02 0.60058888125E+02
 0.64671768139E+02 0.67565280795E+02 0.68194983964E+02 0.66581687126E+02 0.63373530910E+02
 0.59696530323E+02 0.56818921723E+02 0.62384178117E+02 0.62932789434E+02 0.64329862337E+02
 0.65923865644E+02 0.66904209067E+02 0.66592936879E+02 0.64671768139E+02 0.61268165466E+02
 0.56862800457E+02 0.51879075169E+02 0.46615634898E+02 0.41342297812E+02 0.36274602774E+02
 0.31565228890E+02 0.27308135651E+02 0.23548436110E+02 0.20293276098E+02 0.17521857192E+02
 0.15194586981E+02 0.13261609929E+02 0.11670356941E+02 0.10371327530E+02 0.93215642278E+01
 0.84859183175E+01 0.78367429522E+01 0.73528411618E+01 0.70183808329E+01 0.68221967802E+01
 0.67575560183E+01 0.68221967802E+01 0.70183808329E+01 0.73528411618E+01 0.78367429522E+01
 0.84859183175E+01 0.93215642278E+01 0.10371327530E+02 0.11670356941E+02 0.13261609929E+02
 0.15194586981E+02 0.17521857192E+02 0.20293276098E+02 0.23548436110E+02 0.27308135651E+02
 0.31565228890E+02 0.36274602774E+02 0.41342297812E+02 0.46615634898E+02 0.51879075169E+02
 0.56862800457E+02 0.61268165466E+02 0.64671768139E+02 0.66592936879E+02 0.66904209067E+02
 0.65923865644E+02 0.64329862337E+02 0.62932789434E+02 0.63067501015E+02 0.63261556773E+02
 0.63694204818E+02 0.63979921797E+02 0.63658176365E+02 0.62382377276E+02 0.60058888125E+02
 0.56862800457E+02 0.53004250166E+02 0.48691072505E+02 0.44149821743E+02 0.39589598962E+02
 0.35181113344E+02 0.31049787258E+02 0.27277825158E+02 0.23910107201E+02 0.20960788539E+02
 0.18419788834E+02 0.16259517469E+02 0.14441962169E+02 0.12925494561E+02 0.11670356941E+02
 0.10642091611E+02 0.98128432416E+01 0.91610619645E+01 0.86704227750E+01 0.83287301972E+01
 0.81272781336E+01 0.80607312842E+01 0.81272781336E+01 0.83287301972E+01 0.86704227750E+01
 0.91610619645E+01 0.98128432416E+01 0.10642091611E+02 0.11670356941E+02 0.12925494561E+02
 0.14441962169E+02 0.16259517469E+02 0.18419788834E+02 0.20960788539E+02 0.23910107201E+02
 0.27277825158E+02 0.31049787258E+02 0.35181113344E+02 0.39589598962E+02 0.44149821743E+02
 0.48691072505E+02 0.53004250166E+02 0.56862800457E+02 0.60058888125E+02 0.62382377276E+02
 0.63658176365E+02 0.63979921797E+02 0.63694204818E+02 0.63261556773E+02 0.59201601989E+02
 0.59209615311E+02 0.59154421008E+02 0.58836909708E+02 0.58035535643E+02 0.56616260397E+02
 0.54554589510E+02 0.51879075169E+02 0.48691072505E+02 0.45140542658E+02 0.41393859366E+02
 0.37608164950E+02 0.33916174609E+02 0.30420338848E+02 0.27192802090E+02 0.24277768946E+02
 0.21694601326E+02 0.19441611325E+02 0.17501023402E+02 0.15845018178E+02 0.14441962169E+02
 0.13261609929E+02 0.12278394699E+02 0.11472606075E+02 0.10829910521E+02 0.10340052768E+02
 0.99955854370E+01 0.97911543073E+01 0.97233980253E+01 0.97911543073E+01 0.99955854370E+01
 0.10340052768E+02 0.10829910521E+02 0.11472606075E+02 0.12278394699E+02 0.13261609929E+02
 0.14441962169E+02 0.15845018178E+02 0.17501023402E+02 0.19441611325E+02 0.21694601326E+02
 0.24277768946E+02 0.27192802090E+02 0.30420338848E+02 0.33916174609E+02 0.37608164950E+02
 0.41393859366E+02 0.45140542658E+02 0.48691072505E+02 0.51879075169E+02 0.54554589510E+02
 0.56616260397E+02 0.58035535643E+02 0.58836909708E+02 0.59154421008E+02 0.59209615311E+02
 0.52790017710E+02 0.52743428087E+02 0.52568366810E+02 0.52175252662E+02 0.51452629096E+02
 0.50306361938E+02 0.48689792306E+02 0.46615634898E+02 0.44149821743E+02 0.41393859366E+02
 0.38464202125E+02 0.35475138051E+02 0.32527887781E+02 0.29705264114E+02 0.27069699622E+02
 0.24662816378E+02 0.22506002302E+02 0.20602417243E+02 0.18940838467E+02 0.17501023402E+02
 0.16259517469E+02 0.15194586981E+02 0.14289291247E+02 0.13532393424E+02 0.12917525358E+02
 0.12441487458E+02 0.12102616818E+02 0.11899816254E+02 0.11832314343E+02 0.11899816254E+02
 0.12102616818E+02 0.12441487458E+02 0.12917525358E+02 0.13532393424E+02 0.14289291247E+02
 0.15194586981E+02 0.16259517469E+02 0.17501023402E+02 0.18940838467E+02 0.20602417243E+02
 0.22506002302E+02 0.24662816378E+02 0.27069699622E+02 0.29705264114E+02 0.32527887781E+02
 0.35475138051E+02 0.38464202125E+02 0.41393859366E+02 0.44149821743E+02 0.46615634898E+02
 0.48689792306E+02 0.50306361938E+02 0.51452629096E+02 0.52175252662E+02 0.52568366810E+02
 0.52743428087E+02 0.45700290195E+02 0.45664072092E+02 0.45533315003E+02 0.45249657348E+02
 0.44738926956E+02 0.43935743151E+02 0.42803245235E+02 0.41342297812E+02 0.39589598962E+02
 0.37608164950E+02 0.35475138051E+02 0.33270857361E+02 0.31070898355E+02 0.28940836016E+02
 0.26932746561E+02 0.25082880723E+02 0.23410736321E+02 0.21920117298E+02 0.20602417243E+02
 0.19441611325E+02 0.18419788834E+02 0.17521857192E+02 0.16738366525E+02 0.16066086029E+02
 0.15506721432E+02 0.15064685326E+02 0.14744918910E+02 0.14551428434E+02 0.14486663140E+02
 0.14551428434E+02 0.14744918910E+02 0.15064685326E+02 0.15506721432E+02 0.16066086029E+02
 0.16738366525E+02 0.17521857192E+02 0.18419788834E+02 0.19441611325E+02 0.20602417243E+02
 0.21920117298E+02 0.23410736321E+02 0.25082880723E+02 0.26932746561E+02 0.28940836016E+02
 0.31070898355E+02 0.33270857361E+02 0.35475138051E+02 0.37608164950E+02 0.39589598962E+02
 0.41342297812E+02 0.42803245235E+02 0.43935743151E+02 0.44738926956E+02 0.45249657348E+02
 0.45533315003E+02 0.45664072092E+02 0.38770052677E+02 0.38755278631E+02 0.38696627237E+02
 0.38555704388E+02 0.38282050308E+02 0.37828076485E+02 0.37161899381E+02 0.36274602774E+02
 0.35181113344E+02 0.33916174609E+02 0.32527887781E+02 0.31070898355E+02 0.29600248147E+02
 0.28166064744E+02 0.26809081482E+02 0.25557303532E+02 0.24424451795E+02 0.23410736321E+02
 0.22506002302E+02 0.21694601326E+02 0.20960788539E+02 0.20293276098E+02 0.19687873247E+02
 0.19147804897E+02 0.18682049983E+02 0.18302569868E+02 0.18021422436E+02 0.17848495701E+02
 0.17790130820E+02 0.17848495701E+02 0.18021422436E+02 0.18302569868E+02 0.18682049983E+02
 0.19147804897E+02 0.19687873247E+02 0.20293276098E+02 0.20960788539E+02 0.21694601326E+02
 0.22506002302E+02 0.23410736321E+02 0.24424451795E+02 0.25557303532E+02 0.26809081482E+02
 0.28166064744E+02 0.29600248147E+02 0.31070898355E+02 0.32527887781E+02 0.33916174609E+02
 0.35181113344E+02 0.36274602774E+02 0.37161899381E+02 0.37828076485E+02 0.38282050308E+02
 0.38555704388E+02 0.38696627237E+02 0.38755278631E+02 0.32364586530E+02 0.32373760801E+02
 0.32391899057E+02 0.32393361390E+02 0.32342970926E+02 0.32204811208E+02 0.31950543494E+02
 0.31565228890E+02 0.31049787258E+02 0.30420338848E+02 0.29705264114E+02 0.28940836016E+02
 0.28166064744E+02 0.27417311342E+02 0.26723356851E+02 0.26101763538E+02 0.25557303532E+02
 0.25082880723E+02 0.24662816378E+02 0.24277768946E+02 0.23910107201E+02 0.23548436110E+02
 0.23190262116E+02 0.22842366766E+02 0.22519089375E+02 0.22239179164E+02 0.22022071046E+02
 0.21884382372E+02 0.21837193511E+02 0.21884382372E+02 0.22022071046E+02 0.22239179164E+02
 0.22519089375E+02 0.22842366766E+02 0.23190262116E+02 0.23548436110E+02 0.23910107201E+02
 0.24277768946E+02 0.24662816378E+02 0.25082880723E+02 0.25557303532E+02 0.26101763538E+02
 0.26723356851E+02 0.27417311342E+02 0.28166064744E+02 0.28940836016E+02 0.29705264114E+02
 0.30420338848E+02 0.31049787258E+02 0.31565228890E+02 0.31950543494E+02 0.32204811208E+02
 0.32342970926E+02 0.32393361390E+02 0.32391899057E+02 0.32373760801E+02 0.26692734133E+02
 0.26723356851E+02 0.26809081482E+02 0.26932746561E+02 0.27069699622E+02 0.27192802090E+02
 0.27277825158E+02 0.27308135651E+02 0.27277825158E+02 0.27192802090E+02 0.27069699622E+02
 0.26932746561E+02 0.26809081482E+02 0.26723356851E+02 0.26692734133E+02 0.26723356851E+02
 0.26809081482E+02 0.26932746561E+02 0.27069699622E+02 0.27192802090E+02 0.27277825158E+02
 0.27308135651E+02 0.27277825158E+02 0.27192802090E+02 0.27069699622E+02 0.26932746561E+02
 0.26809081482E+02 0.26723356851E+02 0.26692734133E+02 0.26723356851E+02 0.26809081482E+02
 0.26932746561E+02 0.27069699622E+02 0.27192802090E+02 0.27277825158E+02 0.27308135651E+02
 0.27277825158E+02 0.27192802090E+02 0.27069699622E+02 0.26932746561E+02 0.26809081482E+02
 0.26723356851E+02 0.26692734133E+02 0.26723356851E+02 0.26809081482E+02 0.26932746561E+02
 0.27069699622E+02 0.27192802090E+02 0.27277825158E+02 0.27308135651E+02 0.27277825158E+02
 0.27192802090E+02 0.27069699622E+02 0.26932746561E+02 0.26809081482E+02 0.26723356851E+02
 0.21837193511E+02 0.21884382372E+02 0.22022071046E+02 0.22239179164E+02 0.22519089375E+02
 0.22842366766E+02 0.23190262116E+02 0.23548436110E+02 0.23910107201E+02 0.24277768946E+02
 0.24662816378E+02 0.25082880723E+02 0.25557303532E+02 0.26101763538E+02 0.26723356851E+02
 0.27417311342E+02 0.28166064744E+02 0.28940836016E+02 0.29705264114E+02 0.30420338848E+02
 0.31049787258E+02 0.31565228890E+02 0.31950543494E+02 0.32204811208E+02 0.32342970926E+02
 0.32393361390E+02 0.32391899057E+02 0.32373760801E+02 0.32364586530E+02 0.32373760801E+02
 0.32391899057E+02 0.32393361390E+02 0.32342970926E+02 0.32204811208E+02 0.31950543494E+02
 0.31565228890E+02 0.31049787258E+02 0.30420338848E+02 0.29705264114E+02 0.28940836016E+02
 0.28166064744E+02 0.27417311342E+02 0.26723356851E+02 0.26101763538E+02 0.25557303532E+02
 0.25082880723E+02 0.24662816378E+02 0.24277768946E+02 0.23910107201E+02 0.23548436110E+02
 0.23190262116E+02 0.22842366766E+02 0.22519089375E+02 0.22239179164E+02 0.22022071046E+02
 0.21884382372E+02 0.17790130820E+02 0.17848495701E+02 0.18021422436E+02 0.18302569868E+02
 0.18682049983E+02 0.19147804897E+02 0.19687873247E+02 0.20293276098E+02 0.20960788539E+02
 0.21694601326E+02 0.22506002302E+02 0.23410736321E+02 0.24424451795E+02 0.25557303532E+02
 0.26809081482E+02 0.28166064744E+02 0.29600248147E+02 0.31070898355E+02 0.32527887781E+02
 0.33916174609E+02 0.35181113344E+02 0.36274602774E+02 0.37161899381E+02 0.37828076485E+02
 0.38282050308E+02 0.38555704388E+02 0.38696627237E+02 0.38755278631E+02 0.38770052677E+02
 0.38755278631E+02 0.38696627237E+02 0.38555704388E+02 0.38282050308E+02 0.37828076485E+02
 0.37161899381E+02 0.36274602774E+02 0.35181113344E+02 0.33916174609E+02 0.32527887781E+02
 0.31070898355E+02 0.29600248147E+02 0.28166064744E+02 0.26809081482E+02 0.25557303532E+02
 0.24424451795E+02 0.23410736321E+02 0.22506002302E+02 0.21694601326E+02 0.20960788539E+02
 0.20293276098E+02 0.19687873247E+02 0.19147804897E+02 0.18682049983E+02 0.18302569868E+02
 0.18021422436E+02 0.17848495701E+02 0.14486663140E+02 0.14551428434E+02 0.14744918910E+02
 0.15064685326E+02 0.15506721432E+02 0.16066086029E+02 0.16738366525E+02 0.17521857192E+02
 0.18419788834E+02 0.19441611325E+02 0.20602417243E+02 0.21920117298E+02 0.23410736321E+02
 0.25082880723E+02 0.26932746561E+02 0.28940836016E+02 0.31070898355E+02 0.33270857361E+02
 0.35475138051E+02 0.37608164950E+02 0.39589598962E+02 0.41342297812E+02 0.42803245235E+02
 0.43935743151E+02 0.44738926956E+02 0.45249657348E+02 0.45533315003E+02 0.45664072092E+02
 0.45700290195E+02 0.45664072092E+02 0.45533315003E+02 0.45249657348E+02 0.44738926956E+02
 0.43935743151E+02 0.42803245235E+02 0.41342297812E+02 0.39589598962E+02 0.37608164950E+02
 0.35475138051E+02 0.33270857361E+02 0.31070898355E+02 0.28940836016E+02 0.26932746561E+02
 0.25082880723E+02 0.23410736321E+02 0.21920117298E+02 0.20602417243E+02 0.19441611325E+02
 0.18419788834E+02 0.17521857192E+02 0.16738366525E+02 0.16066086029E+02 0.15506721432E+02
 0.15064685326E+02 0.14744918910E+02 0.14551428434E+02 0.11832314343E+02 0.11899816254E+02
 0.12102616818E+02 0.12441487458E+02 0.12917525358E+02 0.13532393424E+02 0.14289291247E+02
 0.15194586981E+02 0.16259517469E+02 0.17501023402E+02 0.18940838467E+02 0.20602417243E+02
 0.22506002302E+02 0.24662816378E+02 0.27069699622E+02 0.29705264114E+02 0.32527887781E+02
 0.35475138051E+02 0.38464202125E+02 0.41393859366E+02 0.44149821743E+02 0.46615634898E+02
 0.48689792306E+02 0.50306361938E+02 0.51452629096E+02 0.52175252662E+02 0.52568366810E+02
 0.52743428087E+02 0.52790017710E+02 0.52743428087E+02 0.52568366810E+02 0.52175252662E+02
 0.51452629096E+02 0.50306361938E+02 0.48689792306E+02 0.46615634898E+02 0.44149821743E+02
 0.41393859366E+02 0.38464202125E+02 0.35475138051E+02 0.32527887781E+02 0.29705264114E+02
 0.27069699622E+02 0.24662816378E+02 0.22506002302E+02 0.20602417243E+02 0.18940838467E+02
 0.17501023402E+02 0.16259517469E+02 0.15194586981E+02 0.14289291247E+02 0.13532393424E+02
 0.12917525358E+02 0.12441487458E+02 0.12102616818E+02 0.11899816254E+02 0.97233980253E+01
 0.97911543073E+01 0.99955854370E+01 0.10340052768E+02 0.10829910521E+02 0.11472606075E+02
 0.12278394699E+02 0.13261609929E+02 0.14441962169E+02 0.15845018178E+02 0.17501023402E+02
 0.19441611325E+02 0.21694601326E+02 0.24277768946E+02 0.27192802090E+02 0.30420338848E+02
 0.33916174609E+02 0.37608164950E+02 0.41393859366E+02 0.45140542658E+02 0.48691072505E+02
 0.51879075169E+02 0.54554589510E+02 0.56616260397E+02 0.58035535643E+02 0.58836909708E+02
 0.59154421008E+02 0.59209615311E+02 0.59201601989E+02 0.59209615311E+02 0.59154421008E+02
 0.58836909708E+02 0.58035535643E+02 0.56616260397E+02 0.54554589510E+02 0.51879075169E+02
 0.48691072505E+02 0.45140542658E+02 0.41393859366E+02 0.37608164950E+02 0.33916174609E+02
 0.30420338848E+02 0.27192802090E+02 0.24277768946E+02 0.21694601326E+02 0.19441611325E+02
 0.17501023402E+02 0.15845018178E+02 0.14441962169E+02 0.13261609929E+02 0.12278394699E+02
 0.11472606075E+02 0.10829910521E+02 0.10340052768E+02 0.99955854370E+01 0.97911543073E+01
 0.80607312842E+01 0.81272781336E+01 0.83287301972E+01 0.86704227750E+01 0.91610619645E+01
 0.98128432416E+01 0.10642091611E+02 0.11670356941E+02 0.12925494561E+02 0.14441962169E+02
 0.16259517469E+02 0.18419788834E+02 0.20960788539E+02 0.23910107201E+02 0.27277825158E+02
 0.31049787258E+02 0.35181113344E+02 0.39589598962E+02 0.44149821743E+02 0.48691072505E+02
 0.53004250166E+02 0.56862800457E+02 0.60058888125E+02 0.62382377276E+02 0.63658176365E+02
 0.63979921797E+02 0.63694204818E+02 0.63261556773E+02 0.63067501015E+02 0.63261556773E+02
 0.63694204818E+02 0.63979921797E+02 0.63658176365E+02 0.62382377276E+02 0.60058888125E+02
 0.56862800457E+02 0.53004250166E+02 0.48691072505E+02 0.44149821743E+02 0.39589598962E+02
 0.35181113344E+02 0.31049787258E+02 0.27277825158E+02 0.23910107201E+02 0.20960788539E+02
 0.18419788834E+02 0.16259517469E+02 0.14441962169E+02 0.12925494561E+02 0.11670356941E+02
 0.10642091611E+02 0.98128432416E+01 0.91610619645E+01 0.86704227750E+01 0.83287301972E+01
 0.81272781336E+01 0.67575560183E+01 0.68221967802E+01 0.70183808329E+01 0.73528411618E+01
 0.78367429522E+01 0.84859183175E+01 0.93215642278E+01 0.10371327530E+02 0.11670356941E+02
 0.13261609929E+02 0.15194586981E+02 0.17521857192E+02 0.20293276098E+02 0.23548436110E+02
 0.27308135651E+02 0.31565228890E+02 0.36274602774E+02 0.41342297812E+02 0.46615634898E+02
 0.51879075169E+02 0.56862800457E+02 0.61268165466E+02 0.64671768139E+02 0.66592936879E+02
 0.66904209067E+02 0.65923865644E+02 0.64329862337E+02 0.62932789434E+02 0.62384178117E+02
 0.62932789434E+02 0.64329862337E+02 0.65923865644E+02 0.66904209067E+02 0.66592936879E+02
 0.64671768139E+02 0.61268165466E+02 0.56862800457E+02 0.51879075169E+02 0.46615634898E+02
 0.41342297812E+02 0.36274602774E+02 0.31565228890E+02 0.27308135651E+02 0.23548436110E+02
 0.20293276098E+02 0.17521857192E+02 0.15194586981E+02 0.13261609929E+02 0.11670356941E+02
 0.10371327530E+02 0.93215642278E+01 0.84859183175E+01 0.78367429522E+01 0.73528411618E+01
 0.70183808329E+01 0.68221967802E+01 0.57427605607E+01 0.58053134450E+01 0.59955156298E+01
 0.63210005656E+01 0.67945930314E+01 0.74347108193E+01 0.82662056377E+01 0.93215642278E+01
 0.10642091611E+02 0.12278394699E+02 0.14289291247E+02 0.16738366525E+02 0.19687873247E+02
 0.23190262116E+02 0.27277825158E+02 0.31950543494E+02 0.37161899381E+02 0.42803245235E+02
 0.48689792306E+02 0.54554589510E+02 0.60058888125E+02 0.64671768139E+02 0.67565280795E+02
 0.68194983964E+02 0.66581687126E+02 0.63373530910E+02 0.59696530323E+02 0.56818921723E+02
 0.55734513752E+02 0.56818921723E+02 0.59696530323E+02 0.63373530910E+02 0.66581687126E+02
 0.68194983964E+02 0.67565280795E+02 0.64671768139E+02 0.60058888125E+02 0.54554589510E+02
 0.48689792306E+02 0.42803245235E+02 0.37161899381E+02 0.31950543494E+02 0.27277825158E+02
 0.23190262116E+02 0.19687873247E+02 0.16738366525E+02 0.14289291247E+02 0.12278394699E+02
 0.10642091611E+02 0.93215642278E+01 0.82662056377E+01 0.74347108193E+01 0.67945930314E+01
 0.63210005656E+01 0.59955156298E+01 0.58053134450E+01 0.49607648807E+01 0.50213543903E+01
 0.52058201570E+01 0.55223102463E+01 0.59846644081E+01 0.66129946738E+01 0.74347108193E+01
 0.84859183175E+01 0.98128432416E+01 0.11472606075E+02 0.13532393424E+02 0.16066086029E+02
 0.19147804897E+02 0.22842366766E+02 0.27192802090E+02 0.32204811208E+02 0.37828076485E+02
 0.43935743151E+02 0.50306361938E+02 0.56616260397E+02 0.62382377276E+02 0.66592936879E+02
 0.68194983964E+02 0.66651230182E+02 0.62202944962E+02 0.55916804126E+02 0.49460949078E+02
 0.44645698507E+02 0.42866064823E+02 0.44645698507E+02 0.49460949078E+02 0.55916804126E+02
 0.62202944962E+02 0.66651230182E+02 0.68194983964E+02 0.66592936879E+02 0.62382377276E+02
 0.56616260397E+02 0.50306361938E+02 0.43935743151E+02 0.37828076485E+02 0.32204811208E+02
 0.27192802090E+02 0.22842366766E+02 0.19147804897E+02 0.16066086029E+02 0.13532393424E+02
 0.11472606075E+02 0.98128432416E+01 0.84859183175E+01 0.74347108193E+01 0.66129946738E+01
 0.59846644081E+01 0.55223102463E+01 0.52058201570E+01 0.50213543903E+01 0.43695703028E+01
 0.44284794056E+01 0.46079733488E+01 0.49164523264E+01 0.53683079712E+01 0.59846644081E+01
 0.67945930314E+01 0.78367429522E+01 0.91610619645E+01 0.10829910521E+02 0.12917525358E+02
 0.15506721432E+02 0.18682049983E+02 0.22519089375E+02 0.27069699622E+02 0.32342970926E+02
 0.38282050308E+02 0.44738926956E+02 0.51452629096E+02 0.58035535643E+02 0.63658176365E+02
 0.66904209067E+02 0.66581687126E+02 0.62202944962E+02 0.54278796181E+02 0.44345914677E+02
 0.34663310688E+02 0.27623758133E+02 0.25050222485E+02 0.27623758133E+02 0.34663310688E+02
 0.44345914677E+02 0.54278796181E+02 0.62202944962E+02 0.66581687126E+02 0.66904209067E+02
 0.63658176365E+02 0.58035535643E+02 0.51452629096E+02 0.44738926956E+02 0.38282050308E+02
 0.32342970926E+02 0.27069699622E+02 0.22519089375E+02 0.18682049983E+02 0.15506721432E+02
 0.12917525358E+02 0.10829910521E+02 0.91610619645E+01 0.78367429522E+01 0.67945930314E+01
 0.59846644081E+01 0.53683079712E+01 0.49164523264E+01 0.46079733488E+01 0.44284794056E+01
 0.39382660861E+01 0.39958468725E+01 0.41713793509E+01 0.44733640879E+01 0.49164523264E+01
 0.55223102463E+01 0.63210005656E+01 0.73528411618E+01 0.86704227750E+01 0.10340052768E+02
 0.12441487458E+02 0.15064685326E+02 0.18302569868E+02 0.22239179164E+02 0.26932746561E+02
 0.32393361390E+02 0.38555704388E+02 0.45249657348E+02 0.52175252662E+02 0.58836909708E+02
 0.63979921797E+02 0.65923865644E+02 0.63373530910E+02 0.55916804126E+02 0.44345914677E+02
 0.30664051821E+02 0.17705314041E+02 0.84238063498E+01 0.50527688351E+01 0.84238063498E+01
 0.17705314041E+02 0.30664051821E+02 0.44345914677E+02 0.55916804126E+02 0.63373530910E+02
 0.65923865644E+02 0.63979921797E+02 0.58836909708E+02 0.52175252662E+02 0.45249657348E+02
 0.38555704388E+02 0.32393361390E+02 0.26932746561E+02 0.22239179164E+02 0.18302569868E+02
 0.15064685326E+02 0.12441487458E+02 0.10340052768E+02 0.86704227750E+01 0.73528411618E+01
 0.63210005656E+01 0.55223102463E+01 0.49164523264E+01 0.44733640879E+01 0.41713793509E+01
 0.39958468725E+01 0.36448102691E+01 0.37014387319E+01 0.38741185507E+01 0.41713793509E+01
 0.46079733488E+01 0.52058201570E+01 0.59955156298E+01 0.70183808329E+01 0.83287301972E+01
 0.99955854370E+01 0.12102616818E+02 0.14744918910E+02 0.18021422436E+02 0.22022071046E+02
 0.26809081482E+02 0.32391899057E+02 0.38696627237E+02 0.45533315003E+02 0.52568366810E+02
 0.59154421008E+02 0.63694204818E+02 0.64329862337E+02 0.59696530323E+02 0.49460949078E+02
 0.34663310688E+02 0.17705314041E+02 0.19060145602E+01 -.93103270735E+01 -.13368114185E+02
 -.93103270735E+01 0.19060145602E+01 0.17705314041E+02 0.34663310688E+02 0.49460949078E+02
 0.59696530323E+02 0.64329862337E+02 0.63694204818E+02 0.59154421008E+02 0.52568366810E+02
 0.45533315003E+02 0.38696627237E+02 0.32391899057E+02 0.26809081482E+02 0.22022071046E+02
 0.18021422436E+02 0.14744918910E+02 0.12102616818E+02 0.99955854370E+01 0.83287301972E+01
 0.70183808329E+01 0.59955156298E+01 0.52058201570E+01 0.46079733488E+01 0.41713793509E+01
 0.38741185507E+01 0.37014387319E+01 0.34744154659E+01 0.35304728591E+01 0.37014387319E+01
 0.39958468725E+01 0.44284794056E+01 0.50213543903E+01 0.58053134450E+01 0.68221967802E+01
 0.81272781336E+01 0.97911543073E+01 0.11899816254E+02 0.14551428434E+02 0.17848495701E+02
 0.21884382372E+02 0.26723356851E+02 0.32373760801E+02 0.38755278631E+02 0.45664072092E+02
 0.52743428087E+02 0.59209615311E+02 0.63261556773E+02 0.62932789434E+02 0.56818921723E+02
 0.44645698507E+02 0.27623758133E+02 0.84238063498E+01 -.93103270735E+01 -.21840875615E+02
 -.26364509164E+02 -.21840875615E+02 -.93103270735E+01 0.84238063498E+01 0.27623758133E+02
 0.44645698507E+02 0.56818921723E+02 0.62932789434E+02 0.63261556773E+02 0.59209615311E+02
 0.52743428087E+02 0.45664072092E+02 0.38755278631E+02 0.32373760801E+02 0.26723356851E+02
 0.21884382372E+02 0.17848495701E+02 0.14551428434E+02 0.11899816254E+02 0.97911543073E+01
 0.81272781336E+01 0.68221967802E+01 0.58053134450E+01 0.50213543903E+01 0.44284794056E+01
 0.39958468725E+01 0.37014387319E+01 0.35304728591E+01 0.34185482326E+01 0.34744154659E+01
 0.36448102691E+01 0.39382660861E+01 0.43695703028E+01 0.49607648807E+01 0.57427605607E+01
 0.67575560183E+01 0.80607312842E+01 0.97233980253E+01 0.11832314343E+02 0.14486663140E+02
 0.17790130820E+02 0.21837193511E+02 0.26692734133E+02 0.32364586530E+02 0.38770052677E+02
 0.45700290195E+02 0.52790017710E+02 0.59201601989E+02 0.63067501015E+02 0.62384178117E+02
 0.55734513752E+02 0.42866064823E+02 0.25050222485E+02 0.50527688351E+01 -.13368114185E+02
 -.26364509164E+02 -.31053167476E+02 -.26364509164E+02 -.13368114185E+02 0.50527688351E+01
 0.25050222485E+02 0.42866064823E+02 0.55734513752E+02 0.62384178117E+02 0.63067501015E+02
 0.59201601989E+02 0.52790017710E+02 0.45700290195E+02 0.38770052677E+02 0.32364586530E+02
 0.26692734133E+02 0.21837193511E+02 0.17790130820E+02 0.14486663140E+02 0.11832314343E+02
 0.97233980253E+01 0.80607312842E+01 0.67575560183E+01 0.57427605607E+01 0.49607648807E+01