   8   8   0   0
  0.2002393E+02  0.5431000E-09  0.5431000E-09  0.5431000E-09  0.1000000E-14
  1.000000000000000E-004
  CAR 
 diamond Si                              
     11.85610055     -7.13899069  301      5.99965175      1.00000000
     -7.139  0.0000E+00  0.0000E+00
     -7.076  0.0000E+00  0.0000E+00
     -7.012  0.0000E+00  0.0000E+00
     -6.949  0.0000E+00  0.0000E+00
     -6.886  0.0000E+00  0.0000E+00
     -6.822  0.0000E+00  0.0000E+00
     -6.759  0.0000E+00  0.0000E+00
     -6.696  0.9437E-16  0.5975E-17
     -6.632  0.8163E-13  0.5174E-14
     -6.569  0.3222E-10  0.2045E-11
     -6.506  0.5804E-08  0.3695E-09
     -6.443  0.4790E-06  0.3070E-07
     -6.379  0.1821E-04  0.1184E-05
     -6.316  0.3213E-03  0.2153E-04
     -6.253  0.2667E-02  0.1904E-03
     -6.189  0.1083E-01  0.8763E-03
     -6.126  0.2478E-01  0.2445E-02
     -6.063  0.4320E-01  0.5180E-02
     -5.999  0.6509E-01  0.9301E-02
     -5.936  0.7591E-01  0.1411E-01
     -5.873  0.7960E-01  0.1915E-01
     -5.809  0.8566E-01  0.2457E-01
     -5.746  0.9852E-01  0.3081E-01
     -5.683  0.1171E+00  0.3822E-01
     -5.619  0.1369E+00  0.4689E-01
     -5.556  0.1383E+00  0.5565E-01
     -5.493  0.1134E+00  0.6283E-01
     -5.429  0.1033E+00  0.6937E-01
     -5.366  0.1284E+00  0.7749E-01
     -5.303  0.1701E+00  0.8827E-01
     -5.239  0.2049E+00  0.1012E+00
     -5.176  0.2052E+00  0.1142E+00
     -5.113  0.1564E+00  0.1241E+00
     -5.050  0.1287E+00  0.1323E+00
     -4.986  0.1556E+00  0.1421E+00
     -4.923  0.1936E+00  0.1544E+00
     -4.860  0.2128E+00  0.1679E+00
     -4.796  0.2085E+00  0.1811E+00
     -4.733  0.1963E+00  0.1935E+00
     -4.670  0.2249E+00  0.2077E+00
     -4.606  0.2579E+00  0.2241E+00
     -4.543  0.2556E+00  0.2403E+00
     -4.480  0.2500E+00  0.2561E+00
     -4.416  0.2492E+00  0.2719E+00
     -4.353  0.2315E+00  0.2865E+00
     -4.290  0.1866E+00  0.2983E+00
     -4.226  0.1764E+00  0.3095E+00
     -4.163  0.2723E+00  0.3267E+00
     -4.100  0.3936E+00  0.3517E+00
     -4.036  0.4242E+00  0.3785E+00
     -3.973  0.3767E+00  0.4024E+00
     -3.910  0.3408E+00  0.4240E+00
     -3.847  0.3442E+00  0.4457E+00
     -3.783  0.3609E+00  0.4686E+00
     -3.720  0.3737E+00  0.4923E+00
     -3.657  0.3884E+00  0.5169E+00
     -3.593  0.4076E+00  0.5427E+00
     -3.530  0.3440E+00  0.5644E+00
     -3.467  0.2168E+00  0.5782E+00
     -3.403  0.2116E+00  0.5916E+00
     -3.340  0.3201E+00  0.6118E+00
     -3.277  0.4122E+00  0.6379E+00
     -3.213  0.4676E+00  0.6675E+00
     -3.150  0.4599E+00  0.6967E+00
     -3.087  0.3511E+00  0.7189E+00
     -3.023  0.2313E+00  0.7335E+00
     -2.960  0.1875E+00  0.7454E+00
     -2.897  0.1683E+00  0.7561E+00
     -2.833  0.1357E+00  0.7647E+00
     -2.770  0.1330E+00  0.7731E+00
     -2.707  0.1410E+00  0.7820E+00
     -2.643  0.1642E+00  0.7924E+00
     -2.580  0.2512E+00  0.8083E+00
     -2.517  0.3306E+00  0.8293E+00
     -2.454  0.3325E+00  0.8503E+00
     -2.390  0.2865E+00  0.8684E+00
     -2.327  0.2022E+00  0.8813E+00
     -2.264  0.9348E-01  0.8872E+00
     -2.200  0.2383E-01  0.8887E+00
     -2.137  0.3075E-02  0.8889E+00
     -2.074  0.1920E-03  0.8889E+00
     -2.010  0.5665E-05  0.8889E+00
     -1.947  0.6015E-06  0.8889E+00
     -1.884  0.3085E-04  0.8889E+00
     -1.820  0.8688E-03  0.8889E+00
     -1.757  0.1185E-01  0.8897E+00
     -1.694  0.7927E-01  0.8947E+00
     -1.630  0.2630E+00  0.9114E+00
     -1.567  0.4411E+00  0.9393E+00
     -1.504  0.3999E+00  0.9646E+00
     -1.440  0.2469E+00  0.9803E+00
     -1.377  0.1469E+00  0.9896E+00
     -1.314  0.1149E+00  0.9968E+00
     -1.251  0.1731E+00  0.1008E+01
     -1.187  0.2823E+00  0.1026E+01
     -1.124  0.4232E+00  0.1052E+01
     -1.061  0.5739E+00  0.1089E+01
     -0.997  0.5901E+00  0.1126E+01
     -0.934  0.5116E+00  0.1159E+01
     -0.871  0.5399E+00  0.1193E+01
     -0.807  0.6148E+00  0.1232E+01
     -0.744  0.5263E+00  0.1265E+01
     -0.681  0.3383E+00  0.1286E+01
     -0.617  0.2170E+00  0.1300E+01
     -0.554  0.1844E+00  0.1312E+01
     -0.491  0.2848E+00  0.1330E+01
     -0.427  0.4438E+00  0.1358E+01
     -0.364  0.4219E+00  0.1385E+01
     -0.301  0.2188E+00  0.1399E+01
     -0.237  0.6314E-01  0.1403E+01
     -0.174  0.3644E-01  0.1405E+01
     -0.111  0.9616E-01  0.1411E+01
     -0.047  0.1730E+00  0.1422E+01
      0.016  0.2241E+00  0.1436E+01
      0.079  0.3063E+00  0.1455E+01
      0.142  0.3636E+00  0.1478E+01
      0.206  0.2943E+00  0.1497E+01
      0.269  0.1890E+00  0.1509E+01
      0.332  0.1096E+00  0.1516E+01
      0.396  0.7031E-01  0.1520E+01
      0.459  0.6471E-01  0.1525E+01
      0.522  0.6241E-01  0.1529E+01
      0.586  0.1099E+00  0.1535E+01
      0.649  0.2291E+00  0.1550E+01
      0.712  0.3107E+00  0.1570E+01
      0.776  0.2464E+00  0.1585E+01
      0.839  0.1073E+00  0.1592E+01
      0.902  0.2437E-01  0.1594E+01
      0.966  0.5410E-02  0.1594E+01
      1.029  0.2005E-01  0.1595E+01
      1.092  0.6910E-01  0.1600E+01
      1.156  0.1148E+00  0.1607E+01
      1.219  0.1061E+00  0.1614E+01
      1.282  0.1196E+00  0.1621E+01
      1.345  0.2303E+00  0.1636E+01
      1.409  0.3740E+00  0.1659E+01
      1.472  0.4804E+00  0.1690E+01
      1.535  0.4707E+00  0.1720E+01
      1.599  0.3519E+00  0.1742E+01
      1.662  0.3215E+00  0.1762E+01
      1.725  0.3887E+00  0.1787E+01
      1.789  0.4850E+00  0.1818E+01
      1.852  0.5702E+00  0.1854E+01
      1.915  0.5391E+00  0.1888E+01
      1.979  0.4889E+00  0.1919E+01
      2.042  0.5166E+00  0.1951E+01
      2.105  0.5070E+00  0.1984E+01
      2.169  0.4499E+00  0.2012E+01
      2.232  0.4771E+00  0.2042E+01
      2.295  0.5011E+00  0.2074E+01
      2.359  0.4295E+00  0.2101E+01
      2.422  0.4204E+00  0.2128E+01
      2.485  0.4648E+00  0.2157E+01
      2.549  0.4538E+00  0.2186E+01
      2.612  0.4369E+00  0.2214E+01
      2.675  0.5282E+00  0.2247E+01
      2.738  0.7350E+00  0.2294E+01
      2.802  0.8568E+00  0.2348E+01
      2.865  0.7588E+00  0.2396E+01
      2.928  0.5599E+00  0.2431E+01
      2.992  0.4414E+00  0.2459E+01
      3.055  0.5541E+00  0.2494E+01
      3.118  0.7446E+00  0.2542E+01
      3.182  0.7545E+00  0.2589E+01
      3.245  0.7090E+00  0.2634E+01
      3.308  0.6267E+00  0.2674E+01
      3.372  0.4477E+00  0.2702E+01
      3.435  0.4124E+00  0.2728E+01
      3.498  0.5951E+00  0.2766E+01
      3.562  0.8430E+00  0.2819E+01
      3.625  0.9374E+00  0.2879E+01
      3.688  0.7734E+00  0.2928E+01
      3.752  0.5687E+00  0.2964E+01
      3.815  0.4168E+00  0.2990E+01
      3.878  0.2959E+00  0.3009E+01
      3.941  0.3206E+00  0.3029E+01
      4.005  0.4923E+00  0.3060E+01
      4.068  0.6564E+00  0.3102E+01
      4.131  0.7248E+00  0.3148E+01
      4.195  0.7236E+00  0.3194E+01
      4.258  0.6237E+00  0.3233E+01
      4.321  0.4835E+00  0.3264E+01
      4.385  0.4282E+00  0.3291E+01
      4.448  0.3778E+00  0.3315E+01
      4.511  0.2925E+00  0.3333E+01
      4.575  0.3407E+00  0.3355E+01
      4.638  0.4892E+00  0.3386E+01
      4.701  0.5132E+00  0.3418E+01
      4.765  0.3691E+00  0.3442E+01
      4.828  0.2037E+00  0.3455E+01
      4.891  0.1171E+00  0.3462E+01
      4.955  0.9982E-01  0.3468E+01
      5.018  0.1423E+00  0.3477E+01
      5.081  0.2270E+00  0.3492E+01
      5.145  0.2731E+00  0.3509E+01
      5.208  0.2110E+00  0.3522E+01
      5.271  0.1183E+00  0.3530E+01
      5.334  0.7966E-01  0.3535E+01
      5.398  0.6975E-01  0.3539E+01
      5.461  0.7240E-01  0.3544E+01
      5.524  0.7286E-01  0.3549E+01
      5.588  0.5943E-01  0.3552E+01
      5.651  0.3615E-01  0.3555E+01
      5.714  0.1314E-01  0.3555E+01
      5.778  0.2426E-02  0.3556E+01
      5.841  0.2140E-03  0.3556E+01
      5.904  0.8821E-05  0.3556E+01
      5.968  0.1682E-06  0.3556E+01
      6.031  0.3997E-08  0.3556E+01
      6.094  0.3127E-06  0.3556E+01
      6.158  0.1781E-04  0.3556E+01
      6.221  0.4689E-03  0.3556E+01
      6.284  0.5741E-02  0.3556E+01
      6.348  0.3300E-01  0.3558E+01
      6.411  0.9072E-01  0.3564E+01
      6.474  0.1269E+00  0.3572E+01
      6.537  0.1106E+00  0.3579E+01
      6.601  0.8662E-01  0.3584E+01
      6.664  0.8236E-01  0.3590E+01
      6.727  0.1185E+00  0.3597E+01
      6.791  0.2038E+00  0.3610E+01
      6.854  0.2962E+00  0.3629E+01
      6.917  0.3035E+00  0.3648E+01
      6.981  0.2232E+00  0.3662E+01
      7.044  0.1633E+00  0.3672E+01
      7.107  0.2436E+00  0.3688E+01
      7.171  0.4001E+00  0.3713E+01
      7.234  0.4149E+00  0.3739E+01
      7.297  0.3123E+00  0.3759E+01
      7.361  0.2818E+00  0.3777E+01
      7.424  0.3258E+00  0.3798E+01
      7.487  0.3515E+00  0.3820E+01
      7.551  0.3933E+00  0.3845E+01
      7.614  0.4721E+00  0.3875E+01
      7.677  0.4919E+00  0.3906E+01
      7.740  0.5211E+00  0.3939E+01
      7.804  0.7236E+00  0.3985E+01
      7.867  0.9425E+00  0.4044E+01
      7.930  0.9242E+00  0.4103E+01
      7.994  0.7212E+00  0.4149E+01
      8.057  0.5826E+00  0.4185E+01
      8.120  0.5632E+00  0.4221E+01
      8.184  0.5264E+00  0.4254E+01
      8.247  0.4890E+00  0.4285E+01
      8.310  0.5786E+00  0.4322E+01
      8.374  0.7135E+00  0.4367E+01
      8.437  0.6611E+00  0.4409E+01
      8.500  0.4592E+00  0.4438E+01
      8.564  0.3784E+00  0.4462E+01
      8.627  0.4409E+00  0.4490E+01
      8.690  0.4511E+00  0.4519E+01
      8.754  0.4050E+00  0.4544E+01
      8.817  0.4948E+00  0.4576E+01
      8.880  0.7765E+00  0.4625E+01
      8.944  0.1062E+01  0.4692E+01
      9.007  0.1142E+01  0.4764E+01
      9.070  0.1013E+01  0.4828E+01
      9.133  0.8446E+00  0.4882E+01
      9.197  0.6674E+00  0.4924E+01
      9.260  0.4960E+00  0.4955E+01
      9.323  0.5289E+00  0.4989E+01
      9.387  0.7085E+00  0.5034E+01
      9.450  0.7868E+00  0.5084E+01
      9.513  0.7328E+00  0.5130E+01
      9.577  0.6367E+00  0.5170E+01
      9.640  0.5268E+00  0.5204E+01
      9.703  0.4092E+00  0.5230E+01
      9.767  0.3793E+00  0.5254E+01
      9.830  0.4814E+00  0.5284E+01
      9.893  0.5682E+00  0.5320E+01
      9.957  0.5598E+00  0.5356E+01
     10.020  0.5050E+00  0.5388E+01
     10.083  0.4372E+00  0.5415E+01
     10.147  0.4167E+00  0.5442E+01
     10.210  0.4155E+00  0.5468E+01
     10.273  0.3803E+00  0.5492E+01
     10.336  0.3146E+00  0.5512E+01
     10.400  0.2175E+00  0.5526E+01
     10.463  0.1112E+00  0.5533E+01
     10.526  0.5567E-01  0.5536E+01
     10.590  0.5659E-01  0.5540E+01
     10.653  0.5312E-01  0.5543E+01
     10.716  0.2891E-01  0.5545E+01
     10.780  0.2481E-01  0.5547E+01
     10.843  0.4777E-01  0.5550E+01
     10.906  0.5509E-01  0.5553E+01
     10.970  0.3036E-01  0.5555E+01
     11.033  0.7889E-02  0.5555E+01
     11.096  0.9613E-03  0.5556E+01
     11.160  0.5461E-04  0.5556E+01
     11.223  0.1437E-05  0.5556E+01
     11.286  0.1741E-07  0.5556E+01
     11.350  0.9666E-10  0.5556E+01
     11.413  0.2449E-12  0.5556E+01
     11.476  0.2922E-15  0.5556E+01
     11.540  0.0000E+00  0.5556E+01
     11.603  0.0000E+00  0.5556E+01
     11.666  0.0000E+00  0.5556E+01
     11.729  0.0000E+00  0.5556E+01
     11.793  0.0000E+00  0.5556E+01
     11.856  0.0000E+00  0.5556E+01
