       N       E                     dE             d eps       ncg     rms          rms(c)
DAV:   1     0.309310179800E+02    0.30931E+02   -0.78438E+03  1000   0.562E+02
DAV:   2    -0.412877207757E+02   -0.72219E+02   -0.68898E+02  1315   0.111E+02
DAV:   3    -0.439696239439E+02   -0.26819E+01   -0.26694E+01  1300   0.208E+01    0.113E+01
DAV:   4    -0.435013283012E+02    0.46830E+00   -0.44602E-01  1290   0.317E+00    0.664E+00
DAV:   5    -0.432730480954E+02    0.22828E+00   -0.49176E-01  1210   0.280E+00    0.386E-01
DAV:   6    -0.432776714973E+02   -0.46234E-02   -0.19224E-02  1250   0.617E-01    0.205E-01
DAV:   7    -0.432792396648E+02   -0.15682E-02   -0.29339E-03  1135   0.229E-01    0.121E-01
DAV:   8    -0.432793469062E+02   -0.10724E-03   -0.15220E-04  1030   0.617E-02    0.629E-02
DAV:   9    -0.432794009830E+02   -0.54077E-04   -0.72543E-05   875   0.434E-02
   1 F= -.43279401E+02 E0= -.43279401E+02  d E =-.432794E+02
       N       E                     dE             d eps       ncg     rms          rms(c)
DAV:   1    -0.432928285250E+02   -0.13482E-01   -0.26397E+00  1170   0.640E+00
DAV:   2    -0.432986604761E+02   -0.58320E-02   -0.58319E-02  1245   0.102E+00
DAV:   3    -0.432987056113E+02   -0.45135E-04   -0.45135E-04  1265   0.102E-01    0.184E+00
DAV:   4    -0.432407516778E+02    0.57954E-01   -0.27881E-02  1035   0.595E-01    0.911E-01
DAV:   5    -0.432122460883E+02    0.28506E-01   -0.42241E-02  1190   0.740E-01    0.305E-01
DAV:   6    -0.432120264098E+02    0.21968E-03   -0.20212E-03  1170   0.201E-01    0.134E-01
DAV:   7    -0.432119656743E+02    0.60736E-04   -0.22476E-04  1100   0.539E-02
   2 F= -.43211966E+02 E0= -.43211966E+02  d E =0.674353E-01
       N       E                     dE             d eps       ncg     rms          rms(c)
DAV:   1    -0.433345126498E+02   -0.12249E+00   -0.13240E+00  1165   0.464E+00
DAV:   2    -0.433381331113E+02   -0.36205E-02   -0.36205E-02  1260   0.756E-01
DAV:   3    -0.433381519851E+02   -0.18874E-04   -0.18874E-04  1160   0.719E-02    0.131E+00
DAV:   4    -0.433094227057E+02    0.28729E-01   -0.13752E-02  1020   0.425E-01    0.636E-01
DAV:   5    -0.432955348553E+02    0.13888E-01   -0.20378E-02  1140   0.521E-01    0.231E-01
DAV:   6    -0.432955193515E+02    0.15504E-04   -0.98648E-04  1185   0.144E-01
   3 F= -.43295519E+02 E0= -.43295519E+02  d E =-.161184E-01
       N       E                     dE             d eps       ncg     rms          rms(c)
DAV:   1    -0.432954517156E+02    0.83140E-04   -0.32144E-04  1055   0.769E-02
DAV:   2    -0.432954522960E+02   -0.58036E-06   -0.58033E-06   540   0.998E-03
DAV:   3    -0.432954523410E+02   -0.44974E-07   -0.45043E-07   545   0.339E-03    0.341E-02
DAV:   4    -0.432954447453E+02    0.75957E-05   -0.40855E-06   515   0.799E-03
   4 F= -.43295445E+02 E0= -.43295445E+02  d E =-.160438E-01
