<?xml version="1.0" encoding="ISO-8859-1"?>
<modeling>
 <generator>
  <i name="program" type="string">vasp </i>
  <i name="version" type="string">5.4.1  </i>
  <i name="subversion" type="string">05Feb16 (build Feb 24 2020 14:33:01) complex                          parallel </i>
  <i name="platform" type="string">IFC91_ompi </i>
  <i name="date" type="string">2020 02 27 </i>
  <i name="time" type="string">21:50:04 </i>
 </generator>
 <incar>
  <i type="string" name="SYSTEM"> diamond Si</i>
  <i type="int" name="ISTART">     0</i>
  <i type="string" name="PREC">accurate</i>
  <i type="int" name="NSIM">     4</i>
  <i type="int" name="ICHARG">     2</i>
  <i type="int" name="NELM">    60</i>
  <i type="int" name="NELMDL">     3</i>
  <i type="int" name="NELMIN">     0</i>
  <i type="int" name="IBRION">     2</i>
  <i name="EDIFF">      0.00010000</i>
  <i name="EDIFFG">     -0.01000000</i>
  <i type="int" name="NSW">     9</i>
  <i type="int" name="ISIF">     3</i>
  <i name="ENCUT">    240.00000000</i>
  <i name="POTIM">      1.00000000</i>
  <i type="logical" name="LPLANE"> F  </i>
  <i type="int" name="ISMEAR">     0</i>
  <i name="SIGMA">      0.10000000</i>
  <v type="int" name="KPOINT_BSE">    -1     0     0     0</v>
  <i type="int" name="NELM">    60</i>
 </incar>
 <kpoints>
  <generation param="Monkhorst-Pack">
   <v type="int" name="divisions">       8        8        8 </v>
   <v name="usershift">      0.00000000       0.00000000       0.00000000 </v>
   <v name="genvec1">      0.12500000       0.00000000       0.00000000 </v>
   <v name="genvec2">      0.00000000       0.12500000       0.00000000 </v>
   <v name="genvec3">      0.00000000       0.00000000       0.12500000 </v>
   <v name="shift">      0.50000000       0.50000000       0.50000000 </v>
  </generation>
  <varray name="kpointlist" >
   <v>       0.06250000       0.06250000       0.06250000 </v>
   <v>       0.18750000       0.06250000       0.06250000 </v>
   <v>       0.31250000       0.06250000       0.06250000 </v>
   <v>       0.43750000       0.06250000       0.06250000 </v>
   <v>       0.18750000       0.18750000       0.06250000 </v>
   <v>       0.31250000       0.18750000       0.06250000 </v>
   <v>       0.43750000       0.18750000       0.06250000 </v>
   <v>       0.31250000       0.31250000       0.06250000 </v>
   <v>       0.43750000       0.31250000       0.06250000 </v>
   <v>       0.43750000       0.43750000       0.06250000 </v>
   <v>       0.18750000       0.18750000       0.18750000 </v>
   <v>       0.31250000       0.18750000       0.18750000 </v>
   <v>       0.43750000       0.18750000       0.18750000 </v>
   <v>       0.31250000       0.31250000       0.18750000 </v>
   <v>       0.43750000       0.31250000       0.18750000 </v>
   <v>       0.43750000       0.43750000       0.18750000 </v>
   <v>       0.31250000       0.31250000       0.31250000 </v>
   <v>       0.43750000       0.31250000       0.31250000 </v>
   <v>       0.43750000       0.43750000       0.31250000 </v>
   <v>       0.43750000       0.43750000       0.43750000 </v>
  </varray>
  <varray name="weights" >
   <v>       0.01562500 </v>
   <v>       0.04687500 </v>
   <v>       0.04687500 </v>
   <v>       0.04687500 </v>
   <v>       0.04687500 </v>
   <v>       0.09375000 </v>
   <v>       0.09375000 </v>
   <v>       0.04687500 </v>
   <v>       0.09375000 </v>
   <v>       0.04687500 </v>
   <v>       0.01562500 </v>
   <v>       0.04687500 </v>
   <v>       0.04687500 </v>
   <v>       0.04687500 </v>
   <v>       0.09375000 </v>
   <v>       0.04687500 </v>
   <v>       0.01562500 </v>
   <v>       0.04687500 </v>
   <v>       0.04687500 </v>
   <v>       0.01562500 </v>
  </varray>
 </kpoints>
 <parameters>
  <separator name="general" >
   <i type="string" name="SYSTEM">diamond Si</i>
   <i type="logical" name="LCOMPAT"> F  </i>
  </separator>
  <separator name="electronic" >
   <i type="string" name="PREC">accura</i>
   <i name="ENMAX">    240.00000000</i>
   <i name="ENAUG">    322.06900000</i>
   <i name="EDIFF">      0.00010000</i>
   <i type="int" name="IALGO">    38</i>
   <i type="int" name="IWAVPR">    11</i>
   <i type="int" name="NBANDS">    25</i>
   <i name="NELECT">     32.00000000</i>
   <i type="int" name="TURBO">     0</i>
   <i type="int" name="IRESTART">     0</i>
   <i type="int" name="NREBOOT">     0</i>
   <i type="int" name="NMIN">     0</i>
   <i name="EREF">      0.00000000</i>
   <separator name="electronic smearing" >
    <i type="int" name="ISMEAR">     0</i>
    <i name="SIGMA">      0.10000000</i>
    <i name="KSPACING">      0.50000000</i>
    <i type="logical" name="KGAMMA"> T  </i>
   </separator>
   <separator name="electronic projectors" >
    <i type="logical" name="LREAL"> F  </i>
    <v name="ROPT">      0.00000000</v>
    <i type="int" name="LMAXPAW">  -100</i>
    <i type="int" name="LMAXMIX">     2</i>
    <i type="logical" name="NLSPLINE"> F  </i>
   </separator>
   <separator name="electronic startup" >
    <i type="int" name="ISTART">     0</i>
    <i type="int" name="ICHARG">     2</i>
    <i type="int" name="INIWAV">     1</i>
   </separator>
   <separator name="electronic spin" >
    <i type="int" name="ISPIN">     1</i>
    <i type="logical" name="LNONCOLLINEAR"> F  </i>
    <v name="MAGMOM">      1.00000000      1.00000000      1.00000000      1.00000000      1.00000000      1.00000000      1.00000000      1.00000000</v>
    <i name="NUPDOWN">     -1.00000000</i>
    <i type="logical" name="LSORBIT"> F  </i>
    <v name="SAXIS">      0.00000000      0.00000000      1.00000000</v>
    <i type="logical" name="LSPIRAL"> F  </i>
    <v name="QSPIRAL">      0.00000000      0.00000000      0.00000000</v>
    <i type="logical" name="LZEROZ"> F  </i>
   </separator>
   <separator name="electronic exchange-correlation" >
    <i type="logical" name="LASPH"> F  </i>
    <i type="logical" name="LMETAGGA"> F  </i>
   </separator>
   <separator name="electronic convergence" >
    <i type="int" name="NELM">    60</i>
    <i type="int" name="NELMDL">     3</i>
    <i type="int" name="NELMIN">     0</i>
    <i name="ENINI">    240.00000000</i>
    <separator name="electronic convergence detail" >
     <i type="logical" name="LDIAG"> T  </i>
     <i type="logical" name="LSUBROT"> F  </i>
     <i name="WEIMIN">      0.00100000</i>
     <i name="EBREAK">      0.00000100</i>
     <i name="DEPER">      0.30000000</i>
     <i type="int" name="NRMM">     4</i>
     <i name="TIME">      0.40000000</i>
    </separator>
   </separator>
   <separator name="electronic mixer" >
    <i name="AMIX">      0.40000000</i>
    <i name="BMIX">      1.00000000</i>
    <i name="AMIN">      0.10000000</i>
    <i name="AMIX_MAG">      1.60000000</i>
    <i name="BMIX_MAG">      1.00000000</i>
    <separator name="electronic mixer details" >
     <i type="int" name="IMIX">     4</i>
     <i type="logical" name="MIXFIRST"> F  </i>
     <i type="int" name="MAXMIX">   -45</i>
     <i name="WC">    100.00000000</i>
     <i type="int" name="INIMIX">     1</i>
     <i type="int" name="MIXPRE">     1</i>
     <i type="int" name="MREMOVE">     5</i>
    </separator>
   </separator>
   <separator name="electronic dipolcorrection" >
    <i type="logical" name="LDIPOL"> F  </i>
    <i type="logical" name="LMONO"> F  </i>
    <i type="int" name="IDIPOL">     0</i>
    <i name="EPSILON">      1.00000000</i>
    <v name="DIPOL">   -100.00000000   -100.00000000   -100.00000000</v>
    <i name="EFIELD">      0.00000000</i>
   </separator>
  </separator>
  <separator name="grids" >
   <i type="int" name="NGX">    28</i>
   <i type="int" name="NGY">    28</i>
   <i type="int" name="NGZ">    28</i>
   <i type="int" name="NGXF">    56</i>
   <i type="int" name="NGYF">    56</i>
   <i type="int" name="NGZF">    56</i>
   <i type="logical" name="ADDGRID"> F  </i>
  </separator>
  <separator name="ionic" >
   <i type="int" name="NSW">     9</i>
   <i type="int" name="IBRION">     2</i>
   <i type="int" name="ISIF">     3</i>
   <i name="PSTRESS">      0.00000000</i>
   <i name="EDIFFG">     -0.01000000</i>
   <i type="int" name="NFREE">     1</i>
   <i name="POTIM">      1.00000000</i>
   <i name="SMASS">     -3.00000000</i>
   <i name="SCALEE">      1.00000000</i>
  </separator>
  <separator name="ionic md" >
   <i name="TEBEG">      0.00010000</i>
   <i name="TEEND">      0.00010000</i>
   <i type="int" name="NBLOCK">     1</i>
   <i type="int" name="KBLOCK">     9</i>
   <i type="int" name="NPACO">   256</i>
   <i name="APACO">     16.00000000</i>
  </separator>
  <separator name="symmetry" >
   <i type="int" name="ISYM">     2</i>
   <i name="SYMPREC">      0.00001000</i>
  </separator>
  <separator name="dos" >
   <i type="logical" name="LORBIT"> F  </i>
   <v name="RWIGS">     -1.00000000</v>
   <i type="int" name="NEDOS">   301</i>
   <i name="EMIN">     10.00000000</i>
   <i name="EMAX">    -10.00000000</i>
   <i name="EFERMI">      0.00000000</i>
  </separator>
  <separator name="writing" >
   <i type="int" name="NWRITE">     2</i>
   <i type="logical" name="LWAVE"> T  </i>
   <i type="logical" name="LCHARG"> T  </i>
   <i type="logical" name="LPARD"> F  </i>
   <i type="logical" name="LVTOT"> F  </i>
   <i type="logical" name="LVHAR"> F  </i>
   <i type="logical" name="LELF"> F  </i>
   <i type="logical" name="LOPTICS"> F  </i>
   <v name="STM">      0.00000000      0.00000000      0.00000000      0.00000000      0.00000000      0.00000000      0.00000000</v>
  </separator>
  <separator name="performance" >
   <i type="int" name="NPAR">     5</i>
   <i type="int" name="NSIM">     4</i>
   <i type="int" name="NBLK">    -1</i>
   <i type="logical" name="LPLANE"> F  </i>
   <i type="logical" name="LSCALAPACK"> T  </i>
   <i type="logical" name="LSCAAWARE"> F  </i>
   <i type="logical" name="LSCALU"> F  </i>
   <i type="logical" name="LASYNC"> F  </i>
   <i type="logical" name="LORBITALREAL"> F  </i>
  </separator>
  <separator name="miscellaneous" >
   <i type="int" name="IDIOT">     3</i>
   <i type="logical" name="LMUSIC"> F  </i>
   <v name="POMASS">     28.08500000</v>
   <v name="DARWINR">      0.00000000</v>
   <v name="DARWINV">      1.00000000</v>
   <i type="logical" name="LCORR"> T  </i>
  </separator>
  <i type="logical" name="GGA_COMPAT"> T  </i>
  <i type="logical" name="LBERRY"> F  </i>
  <i type="int" name="ICORELEVEL">     0</i>
  <i type="logical" name="LDAU"> F  </i>
  <i type="int" name="I_CONSTRAINED_M">     0</i>
  <separator name="electronic exchange-correlation" >
   <i type="string" name="GGA">--</i>
   <i type="int" name="VOSKOWN">     0</i>
   <i type="logical" name="LHFCALC"> F  </i>
   <i type="string" name="PRECFOCK"></i>
   <i type="logical" name="LSYMGRAD"> F  </i>
   <i type="logical" name="LHFONE"> F  </i>
   <i type="logical" name="LRHFCALC"> F  </i>
   <i type="logical" name="LTHOMAS"> F  </i>
   <i type="logical" name="LMODELHF"> F  </i>
   <i name="ENCUT4O">     -1.00000000</i>
   <i type="int" name="EXXOEP">     0</i>
   <i type="int" name="FOURORBIT">     0</i>
   <i name="AEXX">      0.00000000</i>
   <i name="HFALPHA">      0.00000000</i>
   <i name="MCALPHA">      0.00000000</i>
   <i name="ALDAX">      1.00000000</i>
   <i name="AGGAX">      1.00000000</i>
   <i name="ALDAC">      1.00000000</i>
   <i name="AGGAC">      1.00000000</i>
   <i type="int" name="NKREDX">     1</i>
   <i type="int" name="NKREDY">     1</i>
   <i type="int" name="NKREDZ">     1</i>
   <i type="logical" name="SHIFTRED"> F  </i>
   <i type="logical" name="ODDONLY"> F  </i>
   <i type="logical" name="EVENONLY"> F  </i>
   <i type="int" name="LMAXFOCK">     0</i>
   <i type="int" name="NMAXFOCKAE">     0</i>
   <i type="logical" name="LFOCKAEDFT"> F  </i>
   <i name="HFSCREEN">      0.00000000</i>
   <i name="HFSCREENC">      0.00000000</i>
   <i type="int" name="NBANDSGWLOW">     0</i>
  </separator>
  <separator name="vdW DFT" >
   <i type="logical" name="LUSE_VDW"> F  </i>
   <i name="Zab_VDW">     -0.84910000</i>
   <i name="PARAM1">      0.12340000</i>
   <i name="PARAM2">      1.00000000</i>
   <i name="PARAM3">      0.00000000</i>
  </separator>
  <separator name="model GW" >
   <i type="int" name="MODEL_GW">     0</i>
   <i name="MODEL_EPS0">     12.01436085</i>
   <i name="MODEL_ALPHA">      1.00000000</i>
  </separator>
  <separator name="linear response parameters" >
   <i type="logical" name="LEPSILON"> F  </i>
   <i type="logical" name="LRPA"> F  </i>
   <i type="logical" name="LNABLA"> F  </i>
   <i type="logical" name="LVEL"> F  </i>
   <i type="int" name="KINTER">     0</i>
   <i name="CSHIFT">      0.10000000</i>
   <i name="OMEGAMAX">     -1.00000000</i>
   <i name="DEG_THRESHOLD">      0.00200000</i>
  </separator>
  <separator name="orbital magnetization" >
   <i type="logical" name="NUCIND"> F  </i>
   <v name="MAGPOS">      0.00000000      0.00000000      0.00000000</v>
   <i type="logical" name="LNICSALL"> T  </i>
   <i type="logical" name="ORBITALMAG"> F  </i>
   <i type="logical" name="LMAGBLOCH"> F  </i>
   <i type="logical" name="LCHIMAG"> F  </i>
   <i type="logical" name="LGAUGE"> T  </i>
   <i type="int" name="MAGATOM">     0</i>
   <v name="MAGDIPOL">      0.00000000      0.00000000      0.00000000</v>
   <v name="AVECCONST">      0.00000000      0.00000000      0.00000000</v>
  </separator>
  <separator name="response functions" >
   <i type="logical" name="LADDER"> F  </i>
   <i type="logical" name="LFXC"> F  </i>
   <i type="logical" name="LHARTREE"> T  </i>
   <i type="int" name="IBSE">     0</i>
   <v type="int" name="KPOINT">    -1     0     0     0</v>
   <i type="logical" name="LTCTE"> F  </i>
   <i type="logical" name="LTETE"> F  </i>
   <i type="logical" name="LTRIPLET"> F  </i>
   <i type="logical" name="LFXCEPS"> F  </i>
   <i type="logical" name="LFXHEG"> F  </i>
   <i type="int" name="NATURALO">     0</i>
   <i type="logical" name="L2ORDER"> F  </i>
   <i type="logical" name="LUSEW"> F  </i>
   <i name="ENCUTGW">     -2.00000000</i>
   <i name="ENCUTGWSOFT">     -2.00000000</i>
   <i name="ENCUTLF">     -1.00000000</i>
   <i type="int" name="LMAXMP2">    -1</i>
   <i name="SCISSOR">      0.00000000</i>
   <i type="int" name="NOMEGA">     0</i>
   <i type="int" name="NOMEGAR">     0</i>
   <i type="int" name="NBANDSGW">    -1</i>
   <i type="int" name="NBANDSO">    -1</i>
   <i type="int" name="NBANDSV">    -1</i>
   <i type="int" name="NELM">    60</i>
   <i type="int" name="NELMHF">     1</i>
   <i type="int" name="DIM">     3</i>
   <i type="int" name="ANTIRES">     0</i>
   <i name="OMEGAMAX">    -30.00000000</i>
   <i name="OMEGAMIN">    -30.00000000</i>
   <i name="OMEGATL">   -200.00000000</i>
   <i type="int" name="OMEGAGRID">     0</i>
   <i name="CSHIFT">     -0.10000000</i>
   <i type="logical" name="SELFENERGY"> F  </i>
   <i type="logical" name="LSPECTRAL"> F  </i>
   <i type="logical" name="LSPECTRALGW"> F  </i>
   <i type="logical" name="LSINGLES"> F  </i>
   <i type="logical" name="LFERMIGW"> F  </i>
   <i type="logical" name="ODDONLYGW"> F  </i>
   <i type="logical" name="EVENONLYGW"> F  </i>
   <i type="int" name="NKREDLFX">     1</i>
   <i type="int" name="NKREDLFY">     1</i>
   <i type="int" name="NKREDLFZ">     1</i>
   <i type="int" name="MAXMEM">  1800</i>
   <i type="int" name="TELESCOPE">     0</i>
   <i type="int" name="TAUPAR">     1</i>
   <i type="int" name="OMEGAPAR">    -1</i>
   <i name="LAMBDA">      1.00000000</i>
  </separator>
  <separator name="External order field" >
   <i name="OFIELD_KAPPA">      0.00000000</i>
   <v name="OFIELD_K">      0.00000000      0.00000000      0.00000000</v>
   <i name="OFIELD_Q6_NEAR">      0.00000000</i>
   <i name="OFIELD_Q6_FAR">      0.00000000</i>
   <i name="OFIELD_A">      0.00000000</i>
  </separator>
 </parameters>
 <atominfo>
  <atoms>       8 </atoms>
  <types>       1 </types>
  <array name="atoms" >
   <dimension dim="1">ion</dimension>
   <field type="string">element</field>
   <field type="int">atomtype</field>
   <set>
    <rc><c>Si</c><c>   1</c></rc>
    <rc><c>Si</c><c>   1</c></rc>
    <rc><c>Si</c><c>   1</c></rc>
    <rc><c>Si</c><c>   1</c></rc>
    <rc><c>Si</c><c>   1</c></rc>
    <rc><c>Si</c><c>   1</c></rc>
    <rc><c>Si</c><c>   1</c></rc>
    <rc><c>Si</c><c>   1</c></rc>
   </set>
  </array>
  <array name="atomtypes" >
   <dimension dim="1">type</dimension>
   <field type="int">atomspertype</field>
   <field type="string">element</field>
   <field>mass</field>
   <field>valence</field>
   <field type="string">pseudopotential</field>
   <set>
    <rc><c>   8</c><c>Si</c><c>     28.08500000</c><c>      4.00000000</c><c>  PAW_PBE Si 05Jan2001                  </c></rc>
   </set>
  </array>
 </atominfo>
 <structure name="initialpos" >
  <crystal>
   <varray name="basis" >
    <v>       5.43100000       0.00000000       0.00000000 </v>
    <v>       0.00000000       5.43100000       0.00000000 </v>
    <v>       0.00000000       0.00000000       5.43100000 </v>
   </varray>
   <i name="volume">    160.19147799 </i>
   <varray name="rec_basis" >
    <v>       0.18412815       0.00000000       0.00000000 </v>
    <v>       0.00000000       0.18412815       0.00000000 </v>
    <v>       0.00000000       0.00000000       0.18412815 </v>
   </varray>
  </crystal>
  <varray name="positions" >
   <v>       0.00000000       0.00000000       0.00000000 </v>
   <v>       0.00000000       0.50000000       0.50000000 </v>
   <v>       0.50000000       0.00000000       0.50000000 </v>
   <v>       0.50000000       0.50000000       0.00000000 </v>
   <v>       0.25000000       0.25000000       0.25000000 </v>
   <v>       0.75000000       0.75000000       0.25000000 </v>
   <v>       0.75000000       0.25000000       0.75000000 </v>
   <v>       0.25000000       0.75000000       0.75000000 </v>
  </varray>
 </structure>
 <calculation>
  <scstep>
   <time name="dav">    0.35    0.36</time>
   <time name="total">    0.36    0.37</time>
   <energy>
    <i name="alphaZ">     13.44915721 </i>
    <i name="ewald">   -914.08579262 </i>
    <i name="hartreedc">    -44.03749844 </i>
    <i name="XCdc">    -74.41614067 </i>
    <i name="pawpsdc">    704.99039692 </i>
    <i name="pawaedc">   -564.24414232 </i>
    <i name="eentropy">     -0.01070508 </i>
    <i name="bandstr">     84.79953035 </i>
    <i name="atom">    824.48621262 </i>
    <i name="e_fr_energy">     30.93101798 </i>
    <i name="e_wo_entrp">     30.94172306 </i>
    <i name="e_0_energy">     30.93637052 </i>
   </energy>
  </scstep>
  <scstep>
   <time name="dav">    0.17    0.17</time>
   <time name="total">    0.17    0.19</time>
   <energy>
    <i name="e_fr_energy">    -41.28772078 </i>
    <i name="e_wo_entrp">    -41.28772078 </i>
    <i name="e_0_energy">    -41.28772078 </i>
   </energy>
  </scstep>
  <scstep>
   <time name="dav">    0.17    0.17</time>
   <time name="total">    0.19    0.19</time>
   <energy>
    <i name="e_fr_energy">    -43.96962394 </i>
    <i name="e_wo_entrp">    -43.96962394 </i>
    <i name="e_0_energy">    -43.96962394 </i>
   </energy>
  </scstep>
  <scstep>
   <time name="dav">    0.17    0.17</time>
   <time name="total">    0.19    0.19</time>
   <energy>
    <i name="e_fr_energy">    -43.50132830 </i>
    <i name="e_wo_entrp">    -43.50132830 </i>
    <i name="e_0_energy">    -43.50132830 </i>
   </energy>
  </scstep>
  <scstep>
   <time name="dav">    0.18    0.18</time>
   <time name="total">    0.20    0.20</time>
   <energy>
    <i name="e_fr_energy">    -43.27304810 </i>
    <i name="e_wo_entrp">    -43.27304809 </i>
    <i name="e_0_energy">    -43.27304810 </i>
   </energy>
  </scstep>
  <scstep>
   <time name="dav">    0.17    0.17</time>
   <time name="total">    0.18    0.19</time>
   <energy>
    <i name="e_fr_energy">    -43.27767150 </i>
    <i name="e_wo_entrp">    -43.27767150 </i>
    <i name="e_0_energy">    -43.27767150 </i>
   </energy>
  </scstep>
  <scstep>
   <time name="dav">    0.15    0.15</time>
   <time name="total">    0.17    0.17</time>
   <energy>
    <i name="e_fr_energy">    -43.27923966 </i>
    <i name="e_wo_entrp">    -43.27923966 </i>
    <i name="e_0_energy">    -43.27923966 </i>
   </energy>
  </scstep>
  <scstep>
   <time name="dav">    0.15    0.15</time>
   <time name="total">    0.17    0.17</time>
   <energy>
    <i name="e_fr_energy">    -43.27934691 </i>
    <i name="e_wo_entrp">    -43.27934691 </i>
    <i name="e_0_energy">    -43.27934691 </i>
   </energy>
  </scstep>
  <scstep>
   <time name="dav">    0.14    0.14</time>
   <time name="total">    0.14    0.15</time>
   <energy>
    <i name="alphaZ">     13.44915721 </i>
    <i name="ewald">   -914.08579262 </i>
    <i name="hartreedc">    -59.65467646 </i>
    <i name="XCdc">    -71.81889385 </i>
    <i name="pawpsdc">   4212.62701230 </i>
    <i name="pawaedc">  -4072.80723762 </i>
    <i name="eentropy">     -0.00000000 </i>
    <i name="bandstr">     24.52481744 </i>
    <i name="atom">    824.48621262 </i>
    <i name="e_fr_energy">    -43.27940098 </i>
    <i name="e_wo_entrp">    -43.27940098 </i>
    <i name="e_0_energy">    -43.27940098 </i>
   </energy>
  </scstep>
  <structure>
   <crystal>
    <varray name="basis" >
     <v>       5.43100000       0.00000000       0.00000000 </v>
     <v>       0.00000000       5.43100000       0.00000000 </v>
     <v>       0.00000000       0.00000000       5.43100000 </v>
    </varray>
    <i name="volume">    160.19147799 </i>
    <varray name="rec_basis" >
     <v>       0.18412815       0.00000000       0.00000000 </v>
     <v>       0.00000000       0.18412815       0.00000000 </v>
     <v>       0.00000000       0.00000000       0.18412815 </v>
    </varray>
   </crystal>
   <varray name="positions" >
    <v>       0.00000000       0.00000000       0.00000000 </v>
    <v>       0.00000000       0.50000000       0.50000000 </v>
    <v>       0.50000000       0.00000000       0.50000000 </v>
    <v>       0.50000000       0.50000000       0.00000000 </v>
    <v>       0.25000000       0.25000000       0.25000000 </v>
    <v>       0.75000000       0.75000000       0.25000000 </v>
    <v>       0.75000000       0.25000000       0.75000000 </v>
    <v>       0.25000000       0.75000000       0.75000000 </v>
   </varray>
  </structure>
  <varray name="forces" >
   <v>       0.00000000      -0.00000000       0.00000000 </v>
   <v>       0.00000000       0.00000000       0.00000000 </v>
   <v>       0.00000000      -0.00000000       0.00000000 </v>
   <v>      -0.00000000      -0.00000000       0.00000000 </v>
   <v>      -0.00000000       0.00000000      -0.00000000 </v>
   <v>      -0.00000000       0.00000000      -0.00000000 </v>
   <v>      -0.00000000      -0.00000000      -0.00000000 </v>
   <v>      -0.00000000       0.00000000      -0.00000000 </v>
  </varray>
  <varray name="stress" >
   <v>      17.38711252       0.00000000      -0.00000000 </v>
   <v>       0.00000000      17.38711252       0.00000000 </v>
   <v>       0.00000000       0.00000000      17.38711252 </v>
  </varray>
  <energy>
   <i name="e_fr_energy">    -43.27940098 </i>
   <i name="e_wo_entrp">    -43.27940098 </i>
   <i name="e_0_energy">     -0.00000000 </i>
  </energy>
  <time name="totalsc">    1.98    2.04</time>
 </calculation>
 <calculation>
  <scstep>
   <time name="dav">    0.16    0.16</time>
   <time name="total">    0.16    0.17</time>
   <energy>
    <i name="alphaZ">     12.63748048 </i>
    <i name="ewald">   -895.31412192 </i>
    <i name="hartreedc">    -58.43098816 </i>
    <i name="XCdc">    -73.03742329 </i>
    <i name="pawpsdc">   4217.07611335 </i>
    <i name="pawaedc">  -4077.25584808 </i>
    <i name="eentropy">     -0.00000000 </i>
    <i name="bandstr">      6.54574648 </i>
    <i name="atom">    824.48621262 </i>
    <i name="e_fr_energy">    -43.29282852 </i>
    <i name="e_wo_entrp">    -43.29282852 </i>
    <i name="e_0_energy">    -43.29282852 </i>
   </energy>
  </scstep>
  <scstep>
   <time name="dav">    0.17    0.17</time>
   <time name="total">    0.17    0.17</time>
   <energy>
    <i name="e_fr_energy">    -43.29866048 </i>
    <i name="e_wo_entrp">    -43.29866048 </i>
    <i name="e_0_energy">    -43.29866048 </i>
   </energy>
  </scstep>
  <scstep>
   <time name="dav">    0.17    0.17</time>
   <time name="total">    0.18    0.18</time>
   <energy>
    <i name="e_fr_energy">    -43.29870561 </i>
    <i name="e_wo_entrp">    -43.29870561 </i>
    <i name="e_0_energy">    -43.29870561 </i>
   </energy>
  </scstep>
  <scstep>
   <time name="dav">    0.15    0.15</time>
   <time name="total">    0.16    0.17</time>
   <energy>
    <i name="e_fr_energy">    -43.24075168 </i>
    <i name="e_wo_entrp">    -43.24075168 </i>
    <i name="e_0_energy">    -43.24075168 </i>
   </energy>
  </scstep>
  <scstep>
   <time name="dav">    0.16    0.16</time>
   <time name="total">    0.18    0.18</time>
   <energy>
    <i name="e_fr_energy">    -43.21224609 </i>
    <i name="e_wo_entrp">    -43.21224609 </i>
    <i name="e_0_energy">    -43.21224609 </i>
   </energy>
  </scstep>
  <scstep>
   <time name="dav">    0.18    0.18</time>
   <time name="total">    0.19    0.20</time>
   <energy>
    <i name="e_fr_energy">    -43.21202641 </i>
    <i name="e_wo_entrp">    -43.21202641 </i>
    <i name="e_0_energy">    -43.21202641 </i>
   </energy>
  </scstep>
  <scstep>
   <time name="dav">    0.16    0.16</time>
   <time name="total">    0.16    0.17</time>
   <energy>
    <i name="alphaZ">     12.63748048 </i>
    <i name="ewald">   -895.31412192 </i>
    <i name="hartreedc">    -62.64229244 </i>
    <i name="XCdc">    -72.94646996 </i>
    <i name="pawpsdc">   3787.72837568 </i>
    <i name="pawaedc">  -3647.69947312 </i>
    <i name="eentropy">     -0.00000000 </i>
    <i name="bandstr">     10.53832298 </i>
    <i name="atom">    824.48621262 </i>
    <i name="e_fr_energy">    -43.21196567 </i>
    <i name="e_wo_entrp">    -43.21196567 </i>
    <i name="e_0_energy">    -43.21196567 </i>
   </energy>
  </scstep>
  <structure>
   <crystal>
    <varray name="basis" >
     <v>       5.54486947       0.00000000      -0.00000000 </v>
     <v>       0.00000000       5.54486947       0.00000000 </v>
     <v>       0.00000000       0.00000000       5.54486947 </v>
    </varray>
    <i name="volume">    170.48021358 </i>
    <varray name="rec_basis" >
     <v>       0.18034690      -0.00000000      -0.00000000 </v>
     <v>      -0.00000000       0.18034690      -0.00000000 </v>
     <v>       0.00000000      -0.00000000       0.18034690 </v>
    </varray>
   </crystal>
   <varray name="positions" >
    <v>       0.00000000      -0.00000000       0.00000000 </v>
    <v>       0.00000000       0.50000000       0.50000000 </v>
    <v>       0.50000000      -0.00000000       0.50000000 </v>
    <v>       0.50000000       0.50000000       0.00000000 </v>
    <v>       0.25000000       0.25000000       0.25000000 </v>
    <v>       0.75000000       0.75000000       0.25000000 </v>
    <v>       0.75000000       0.25000000       0.75000000 </v>
    <v>       0.25000000       0.75000000       0.75000000 </v>
   </varray>
  </structure>
  <varray name="forces" >
   <v>       0.00000000      -0.00000000       0.00000000 </v>
   <v>       0.00000000      -0.00000000      -0.00000000 </v>
   <v>       0.00000000      -0.00000000      -0.00000000 </v>
   <v>       0.00000000      -0.00000000       0.00000000 </v>
   <v>      -0.00000000      -0.00000000      -0.00000000 </v>
   <v>      -0.00000000       0.00000000      -0.00000000 </v>
   <v>      -0.00000000      -0.00000000       0.00000000 </v>
   <v>      -0.00000000       0.00000000       0.00000000 </v>
  </varray>
  <varray name="stress" >
   <v>     -35.39972616       0.00000000       0.00000000 </v>
   <v>       0.00000000     -35.39972616       0.00000000 </v>
   <v>      -0.00000000      -0.00000000     -35.39972616 </v>
  </varray>
  <energy>
   <i name="e_fr_energy">    -43.21196567 </i>
   <i name="e_wo_entrp">    -43.21196567 </i>
   <i name="e_0_energy">     -0.00000000 </i>
  </energy>
  <time name="totalsc">    1.27    1.31</time>
 </calculation>
 <calculation>
  <scstep>
   <time name="dav">    0.16    0.16</time>
   <time name="total">    0.16    0.17</time>
   <energy>
    <i name="alphaZ">     13.19650752 </i>
    <i name="ewald">   -908.32570651 </i>
    <i name="hartreedc">    -63.56752527 </i>
    <i name="XCdc">    -72.11060399 </i>
    <i name="pawpsdc">   3813.02030387 </i>
    <i name="pawaedc">  -3672.99565113 </i>
    <i name="eentropy">     -0.00000000 </i>
    <i name="bandstr">     22.96195023 </i>
    <i name="atom">    824.48621262 </i>
    <i name="e_fr_energy">    -43.33451265 </i>
    <i name="e_wo_entrp">    -43.33451265 </i>
    <i name="e_0_energy">    -43.33451265 </i>
   </energy>
  </scstep>
  <scstep>
   <time name="dav">    0.17    0.17</time>
   <time name="total">    0.17    0.17</time>
   <energy>
    <i name="e_fr_energy">    -43.33813311 </i>
    <i name="e_wo_entrp">    -43.33813311 </i>
    <i name="e_0_energy">    -43.33813311 </i>
   </energy>
  </scstep>
  <scstep>
   <time name="dav">    0.16    0.16</time>
   <time name="total">    0.17    0.18</time>
   <energy>
    <i name="e_fr_energy">    -43.33815199 </i>
    <i name="e_wo_entrp">    -43.33815198 </i>
    <i name="e_0_energy">    -43.33815198 </i>
   </energy>
  </scstep>
  <scstep>
   <time name="dav">    0.15    0.15</time>
   <time name="total">    0.16    0.16</time>
   <energy>
    <i name="e_fr_energy">    -43.30942271 </i>
    <i name="e_wo_entrp">    -43.30942271 </i>
    <i name="e_0_energy">    -43.30942271 </i>
   </energy>
  </scstep>
  <scstep>
   <time name="dav">    0.16    0.16</time>
   <time name="total">    0.17    0.17</time>
   <energy>
    <i name="e_fr_energy">    -43.29553486 </i>
    <i name="e_wo_entrp">    -43.29553486 </i>
    <i name="e_0_energy">    -43.29553486 </i>
   </energy>
  </scstep>
  <scstep>
   <time name="dav">    0.19    0.19</time>
   <time name="total">    0.22    0.22</time>
   <energy>
    <i name="alphaZ">     13.19650752 </i>
    <i name="ewald">   -908.32570651 </i>
    <i name="hartreedc">    -60.64319103 </i>
    <i name="XCdc">    -72.15111624 </i>
    <i name="pawpsdc">   4048.08771523 </i>
    <i name="pawaedc">  -3908.21989961 </i>
    <i name="eentropy">     -0.00000000 </i>
    <i name="bandstr">     20.27395866 </i>
    <i name="atom">    824.48621262 </i>
    <i name="e_fr_energy">    -43.29551935 </i>
    <i name="e_wo_entrp">    -43.29551935 </i>
    <i name="e_0_energy">    -43.29551935 </i>
   </energy>
  </scstep>
  <structure>
   <crystal>
    <varray name="basis" >
     <v>       5.46544032       0.00000000      -0.00000000 </v>
     <v>       0.00000000       5.46544032       0.00000000 </v>
     <v>       0.00000000       0.00000000       5.46544032 </v>
    </varray>
    <i name="volume">    163.25837486 </i>
    <varray name="rec_basis" >
     <v>       0.18296787      -0.00000000      -0.00000000 </v>
     <v>      -0.00000000       0.18296787      -0.00000000 </v>
     <v>       0.00000000      -0.00000000       0.18296787 </v>
    </varray>
   </crystal>
   <varray name="positions" >
    <v>       0.00000000      -0.00000000       0.00000000 </v>
    <v>       0.00000000       0.50000000       0.50000000 </v>
    <v>       0.50000000      -0.00000000       0.50000000 </v>
    <v>       0.50000000       0.50000000       0.00000000 </v>
    <v>       0.25000000       0.25000000       0.25000000 </v>
    <v>       0.75000000       0.75000000       0.25000000 </v>
    <v>       0.75000000       0.25000000       0.75000000 </v>
    <v>       0.25000000       0.75000000       0.75000000 </v>
   </varray>
  </structure>
  <varray name="forces" >
   <v>       0.00000000      -0.00000000       0.00000000 </v>
   <v>       0.00000000      -0.00000000       0.00000000 </v>
   <v>       0.00000000      -0.00000000      -0.00000000 </v>
   <v>       0.00000000      -0.00000000       0.00000000 </v>
   <v>      -0.00000000       0.00000000      -0.00000000 </v>
   <v>      -0.00000000       0.00000000      -0.00000000 </v>
   <v>      -0.00000000       0.00000000      -0.00000000 </v>
   <v>      -0.00000000       0.00000000       0.00000000 </v>
  </varray>
  <varray name="stress" >
   <v>      -0.84949362      -0.00000000       0.00000000 </v>
   <v>       0.00000000      -0.84949362      -0.00000000 </v>
   <v>       0.00000000       0.00000000      -0.84949362 </v>
  </varray>
  <energy>
   <i name="e_fr_energy">    -43.29551935 </i>
   <i name="e_wo_entrp">    -43.29551935 </i>
   <i name="e_0_energy">     -0.00000000 </i>
  </energy>
  <time name="totalsc">    1.13    1.15</time>
 </calculation>
 <calculation>
  <scstep>
   <time name="dav">    0.15    0.15</time>
   <time name="total">    0.15    0.16</time>
   <energy>
    <i name="alphaZ">     13.20834739 </i>
    <i name="ewald">   -908.59727443 </i>
    <i name="hartreedc">    -60.57169762 </i>
    <i name="XCdc">    -72.14656455 </i>
    <i name="pawpsdc">   4098.97371391 </i>
    <i name="pawaedc">  -3959.08868307 </i>
    <i name="eentropy">     -0.00000000 </i>
    <i name="bandstr">     20.44049403 </i>
    <i name="atom">    824.48621262 </i>
    <i name="e_fr_energy">    -43.29545172 </i>
    <i name="e_wo_entrp">    -43.29545172 </i>
    <i name="e_0_energy">    -43.29545172 </i>
   </energy>
  </scstep>
  <scstep>
   <time name="dav">    0.11    0.11</time>
   <time name="total">    0.11    0.11</time>
   <energy>
    <i name="e_fr_energy">    -43.29545230 </i>
    <i name="e_wo_entrp">    -43.29545230 </i>
    <i name="e_0_energy">    -43.29545230 </i>
   </energy>
  </scstep>
  <scstep>
   <time name="dav">    0.11    0.11</time>
   <time name="total">    0.12    0.12</time>
   <energy>
    <i name="e_fr_energy">    -43.29545234 </i>
    <i name="e_wo_entrp">    -43.29545234 </i>
    <i name="e_0_energy">    -43.29545234 </i>
   </energy>
  </scstep>
  <scstep>
   <time name="dav">    0.10    0.11</time>
   <time name="total">    0.11    0.11</time>
   <energy>
    <i name="alphaZ">     13.20834739 </i>
    <i name="ewald">   -908.59727443 </i>
    <i name="hartreedc">    -60.54708133 </i>
    <i name="XCdc">    -72.14771513 </i>
    <i name="pawpsdc">   4097.30696748 </i>
    <i name="pawaedc">  -3957.42223659 </i>
    <i name="eentropy">     -0.00000000 </i>
    <i name="bandstr">     20.41733525 </i>
    <i name="atom">    824.48621262 </i>
    <i name="e_fr_energy">    -43.29544475 </i>
    <i name="e_wo_entrp">    -43.29544475 </i>
    <i name="e_0_energy">    -43.29544475 </i>
   </energy>
  </scstep>
  <structure>
   <crystal>
    <varray name="basis" >
     <v>       5.46380677       0.00000000      -0.00000000 </v>
     <v>       0.00000000       5.46380677       0.00000000 </v>
     <v>       0.00000000       0.00000000       5.46380677 </v>
    </varray>
    <i name="volume">    163.11203119 </i>
    <varray name="rec_basis" >
     <v>       0.18302258      -0.00000000      -0.00000000 </v>
     <v>      -0.00000000       0.18302258      -0.00000000 </v>
     <v>       0.00000000      -0.00000000       0.18302258 </v>
    </varray>
   </crystal>
   <varray name="positions" >
    <v>       0.00000000      -0.00000000       0.00000000 </v>
    <v>       0.00000000       0.50000000       0.50000000 </v>
    <v>       0.50000000      -0.00000000       0.50000000 </v>
    <v>       0.50000000       0.50000000       0.00000000 </v>
    <v>       0.25000000       0.25000000       0.25000000 </v>
    <v>       0.75000000       0.75000000       0.25000000 </v>
    <v>       0.75000000       0.25000000       0.75000000 </v>
    <v>       0.25000000       0.75000000       0.75000000 </v>
   </varray>
  </structure>
  <varray name="forces" >
   <v>       0.00000000      -0.00000000      -0.00000000 </v>
   <v>      -0.00000000       0.00000000      -0.00000000 </v>
   <v>      -0.00000000       0.00000000       0.00000000 </v>
   <v>      -0.00000000      -0.00000000      -0.00000000 </v>
   <v>       0.00000000       0.00000000       0.00000000 </v>
   <v>      -0.00000000       0.00000000       0.00000000 </v>
   <v>       0.00000000      -0.00000000       0.00000000 </v>
   <v>       0.00000000      -0.00000000      -0.00000000 </v>
  </varray>
  <varray name="stress" >
   <v>       0.29533920       0.00000000      -0.00000000 </v>
   <v>       0.00000000       0.29533920      -0.00000000 </v>
   <v>       0.00000000       0.00000000       0.29533920 </v>
  </varray>
  <energy>
   <i name="e_fr_energy">    -43.29544475 </i>
   <i name="e_wo_entrp">    -43.29544475 </i>
   <i name="e_0_energy">     -0.00000000 </i>
  </energy>
  <time name="totalsc">    0.58    0.61</time>
  <eigenvalues>
   <array>
    <dimension dim="1">band</dimension>
    <dimension dim="2">kpoint</dimension>
    <dimension dim="3">spin</dimension>
    <field>eigene</field>
    <field>occ</field>
    <set>
     <set comment="spin 1">
      <set comment="kpoint 1">
       <r>   -6.1390    1.0000 </r>
       <r>   -2.5612    1.0000 </r>
       <r>   -2.5612    1.0000 </r>
       <r>   -2.5612    1.0000 </r>
       <r>   -1.6195    1.0000 </r>
       <r>   -1.6195    1.0000 </r>
       <r>   -1.6195    1.0000 </r>
       <r>    2.6540    1.0000 </r>
       <r>    2.6540    1.0000 </r>
       <r>    2.6540    1.0000 </r>
       <r>    2.8870    1.0000 </r>
       <r>    2.8870    1.0000 </r>
       <r>    2.8870    1.0000 </r>
       <r>    5.1237    1.0000 </r>
       <r>    5.5745    1.0000 </r>
       <r>    5.5745    1.0000 </r>
       <r>    6.4291    0.0000 </r>
       <r>    6.4291    0.0000 </r>
       <r>    6.4291    0.0000 </r>
       <r>    6.7888    0.0000 </r>
       <r>    6.7888    0.0000 </r>
       <r>    6.7888    0.0000 </r>
       <r>    8.2580    0.0000 </r>
       <r>    8.3378    0.0000 </r>
       <r>    8.3378    0.0000 </r>
      </set>
      <set comment="kpoint 2">
       <r>   -6.0049    1.0000 </r>
       <r>   -3.4165    1.0000 </r>
       <r>   -2.5099    1.0000 </r>
       <r>   -2.5099    1.0000 </r>
       <r>   -1.6017    1.0000 </r>
       <r>   -1.6017    1.0000 </r>
       <r>   -0.6154    1.0000 </r>
       <r>    2.2351    1.0000 </r>
       <r>    2.2351    1.0000 </r>
       <r>    2.7649    1.0000 </r>
       <r>    2.7649    1.0000 </r>
       <r>    2.7915    1.0000 </r>
       <r>    3.0082    1.0000 </r>
       <r>    4.3723    1.0000 </r>
       <r>    5.1466    1.0000 </r>
       <r>    5.3070    1.0000 </r>
       <r>    6.4331    0.0000 </r>
       <r>    6.8640    0.0000 </r>
       <r>    6.8640    0.0000 </r>
       <r>    7.1435    0.0000 </r>
       <r>    7.5927    0.0000 </r>
       <r>    7.5927    0.0000 </r>
       <r>    8.0522    0.0000 </r>
       <r>    8.6280    0.0000 </r>
       <r>    8.9181    0.0000 </r>
      </set>
      <set comment="kpoint 3">
       <r>   -5.7378    1.0000 </r>
       <r>   -4.1721    1.0000 </r>
       <r>   -2.4298    1.0000 </r>
       <r>   -2.4298    1.0000 </r>
       <r>   -1.5813    1.0000 </r>
       <r>   -1.5813    1.0000 </r>
       <r>    0.4270    1.0000 </r>
       <r>    1.8676    1.0000 </r>
       <r>    1.8676    1.0000 </r>
       <r>    2.4703    1.0000 </r>
       <r>    2.4703    1.0000 </r>
       <r>    3.0667    1.0000 </r>
       <r>    3.2479    1.0000 </r>
       <r>    3.4787    1.0000 </r>
       <r>    4.5894    1.0000 </r>
       <r>    4.6734    1.0000 </r>
       <r>    6.5634    0.0000 </r>
       <r>    7.6318    0.0000 </r>
       <r>    7.7203    0.0000 </r>
       <r>    7.8086    0.0000 </r>
       <r>    7.8086    0.0000 </r>
       <r>    8.7233    0.0000 </r>
       <r>    8.7233    0.0000 </r>
       <r>    9.3881    0.0000 </r>
       <r>    9.7781    0.0000 </r>
      </set>
      <set comment="kpoint 4">
       <r>   -5.3403    1.0000 </r>
       <r>   -4.8163    1.0000 </r>
       <r>   -2.3665    1.0000 </r>
       <r>   -2.3665    1.0000 </r>
       <r>   -1.5719    1.0000 </r>
       <r>   -1.5719    1.0000 </r>
       <r>    1.4778    1.0000 </r>
       <r>    1.6692    1.0000 </r>
       <r>    1.6692    1.0000 </r>
       <r>    2.2549    1.0000 </r>
       <r>    2.2549    1.0000 </r>
       <r>    2.5052    1.0000 </r>
       <r>    3.4788    1.0000 </r>
       <r>    3.6002    1.0000 </r>
       <r>    4.0240    1.0000 </r>
       <r>    4.0552    1.0000 </r>
       <r>    6.8248    0.0000 </r>
       <r>    7.1950    0.0000 </r>
       <r>    8.4857    0.0000 </r>
       <r>    9.0348    0.0000 </r>
       <r>    9.0348    0.0000 </r>
       <r>    9.3502    0.0000 </r>
       <r>    9.9618    0.0000 </r>
       <r>    9.9618    0.0000 </r>
       <r>   10.5916    0.0000 </r>
      </set>
      <set comment="kpoint 5">
       <r>   -5.8721    1.0000 </r>
       <r>   -3.3312    1.0000 </r>
       <r>   -3.3312    1.0000 </r>
       <r>   -2.5302    1.0000 </r>
       <r>   -1.5518    1.0000 </r>
       <r>   -0.6789    1.0000 </r>
       <r>   -0.6789    1.0000 </r>
       <r>    1.7738    1.0000 </r>
       <r>    2.3923    1.0000 </r>
       <r>    2.3923    1.0000 </r>
       <r>    2.9243    1.0000 </r>
       <r>    2.9243    1.0000 </r>
       <r>    3.0988    1.0000 </r>
       <r>    3.6198    1.0000 </r>
       <r>    4.7674    1.0000 </r>
       <r>    5.4566    1.0000 </r>
       <r>    6.7053    0.0000 </r>
       <r>    6.9516    0.0000 </r>
       <r>    6.9516    0.0000 </r>
       <r>    7.8439    0.0000 </r>
       <r>    7.8439    0.0000 </r>
       <r>    8.3147    0.0000 </r>
       <r>    8.5820    0.0000 </r>
       <r>    8.6081    0.0000 </r>
       <r>    8.8752    0.0000 </r>
      </set>
      <set comment="kpoint 6">
       <r>   -5.6079    1.0000 </r>
       <r>   -4.0674    1.0000 </r>
       <r>   -3.1728    1.0000 </r>
       <r>   -2.6061    1.0000 </r>
       <r>   -1.4368    1.0000 </r>
       <r>   -0.8189    1.0000 </r>
       <r>    0.2446    1.0000 </r>
       <r>    1.5072    1.0000 </r>
       <r>    1.9879    1.0000 </r>
       <r>    2.6938    1.0000 </r>
       <r>    2.7560    1.0000 </r>
       <r>    2.8042    1.0000 </r>
       <r>    3.0792    1.0000 </r>
       <r>    3.2540    1.0000 </r>
       <r>    4.1903    1.0000 </r>
       <r>    5.0766    1.0000 </r>
       <r>    7.1401    0.0000 </r>
       <r>    7.2283    0.0000 </r>
       <r>    7.9134    0.0000 </r>
       <r>    8.1985    0.0000 </r>
       <r>    8.3244    0.0000 </r>
       <r>    8.8668    0.0000 </r>
       <r>    8.9257    0.0000 </r>
       <r>    9.5906    0.0000 </r>
       <r>    9.8285    0.0000 </r>
      </set>
      <set comment="kpoint 7">
       <r>   -5.2154    1.0000 </r>
       <r>   -4.6993    1.0000 </r>
       <r>   -2.9680    1.0000 </r>
       <r>   -2.7613    1.0000 </r>
       <r>   -1.2510    1.0000 </r>
       <r>   -1.0256    1.0000 </r>
       <r>    1.1337    1.0000 </r>
       <r>    1.4797    1.0000 </r>
       <r>    1.6621    1.0000 </r>
       <r>    1.9805    1.0000 </r>
       <r>    2.7301    1.0000 </r>
       <r>    2.8778    1.0000 </r>
       <r>    3.1133    1.0000 </r>
       <r>    3.6209    1.0000 </r>
       <r>    3.7631    1.0000 </r>
       <r>    4.4142    1.0000 </r>
       <r>    7.4307    0.0000 </r>
       <r>    7.8031    0.0000 </r>
       <r>    8.2597    0.0000 </r>
       <r>    9.0018    0.0000 </r>
       <r>    9.1313    0.0000 </r>
       <r>    9.4988    0.0000 </r>
       <r>    9.5609    0.0000 </r>
       <r>   10.1208    0.0000 </r>
       <r>   10.3312    0.0000 </r>
      </set>
      <set comment="kpoint 8">
       <r>   -5.3501    1.0000 </r>
       <r>   -3.8650    1.0000 </r>
       <r>   -3.8650    1.0000 </r>
       <r>   -2.8991    1.0000 </r>
       <r>   -1.1866    1.0000 </r>
       <r>   -0.0799    1.0000 </r>
       <r>   -0.0799    1.0000 </r>
       <r>    1.3877    1.0000 </r>
       <r>    2.0588    1.0000 </r>
       <r>    2.2320    1.0000 </r>
       <r>    2.2320    1.0000 </r>
       <r>    3.2925    1.0000 </r>
       <r>    3.2925    1.0000 </r>
       <r>    3.5025    1.0000 </r>
       <r>    3.6187    1.0000 </r>
       <r>    5.1509    1.0000 </r>
       <r>    7.1723    0.0000 </r>
       <r>    8.1190    0.0000 </r>
       <r>    8.1190    0.0000 </r>
       <r>    8.5237    0.0000 </r>
       <r>    9.0767    0.0000 </r>
       <r>    9.3315    0.0000 </r>
       <r>    9.3315    0.0000 </r>
       <r>    9.3777    0.0000 </r>
       <r>   10.2123    0.0000 </r>
      </set>
      <set comment="kpoint 9">
       <r>   -4.9685    1.0000 </r>
       <r>   -4.4697    1.0000 </r>
       <r>   -3.5811    1.0000 </r>
       <r>   -3.2441    1.0000 </r>
       <r>   -0.8558    1.0000 </r>
       <r>   -0.4711    1.0000 </r>
       <r>    0.6277    1.0000 </r>
       <r>    1.3322    1.0000 </r>
       <r>    1.5036    1.0000 </r>
       <r>    1.8063    1.0000 </r>
       <r>    2.5954    1.0000 </r>
       <r>    3.0663    1.0000 </r>
       <r>    3.4262    1.0000 </r>
       <r>    3.5659    1.0000 </r>
       <r>    3.9942    1.0000 </r>
       <r>    4.7024    1.0000 </r>
       <r>    7.7777    0.0000 </r>
       <r>    8.4059    0.0000 </r>
       <r>    8.6625    0.0000 </r>
       <r>    8.8610    0.0000 </r>
       <r>    8.9664    0.0000 </r>
       <r>    9.3449    0.0000 </r>
       <r>    9.4564    0.0000 </r>
       <r>    9.9353    0.0000 </r>
       <r>   10.2729    0.0000 </r>
      </set>
      <set comment="kpoint 10">
       <r>   -4.6053    1.0000 </r>
       <r>   -4.1370    1.0000 </r>
       <r>   -4.1370    1.0000 </r>
       <r>   -3.7185    1.0000 </r>
       <r>   -0.4074    1.0000 </r>
       <r>    0.0937    1.0000 </r>
       <r>    0.0937    1.0000 </r>
       <r>    0.6931    1.0000 </r>
       <r>    1.7264    1.0000 </r>
       <r>    2.1063    1.0000 </r>
       <r>    2.1063    1.0000 </r>
       <r>    2.5387    1.0000 </r>
       <r>    4.0489    1.0000 </r>
       <r>    4.1506    1.0000 </r>
       <r>    4.1506    1.0000 </r>
       <r>    4.6448    1.0000 </r>
       <r>    7.7902    0.0000 </r>
       <r>    8.3688    0.0000 </r>
       <r>    8.4100    0.0000 </r>
       <r>    8.4100    0.0000 </r>
       <r>    9.6118    0.0000 </r>
       <r>    9.6118    0.0000 </r>
       <r>    9.8334    0.0000 </r>
       <r>   10.0510    0.0000 </r>
       <r>   10.8561    0.0000 </r>
      </set>
      <set comment="kpoint 11">
       <r>   -5.7410    1.0000 </r>
       <r>   -3.2700    1.0000 </r>
       <r>   -3.2700    1.0000 </r>
       <r>   -3.2700    1.0000 </r>
       <r>   -0.7817    1.0000 </r>
       <r>   -0.7817    1.0000 </r>
       <r>   -0.7817    1.0000 </r>
       <r>    2.0407    1.0000 </r>
       <r>    2.0407    1.0000 </r>
       <r>    2.0407    1.0000 </r>
       <r>    2.8959    1.0000 </r>
       <r>    3.2141    1.0000 </r>
       <r>    3.2141    1.0000 </r>
       <r>    3.2141    1.0000 </r>
       <r>    5.1317    1.0000 </r>
       <r>    5.1317    1.0000 </r>
       <r>    6.8542    0.0000 </r>
       <r>    6.8542    0.0000 </r>
       <r>    6.8542    0.0000 </r>
       <r>    7.8695    0.0000 </r>
       <r>    8.7923    0.0000 </r>
       <r>    8.7923    0.0000 </r>
       <r>    8.7923    0.0000 </r>
       <r>    8.9556    0.0000 </r>
       <r>    8.9556    0.0000 </r>
      </set>
      <set comment="kpoint 12">
       <r>   -5.4805    1.0000 </r>
       <r>   -3.9742    1.0000 </r>
       <r>   -3.1730    1.0000 </r>
       <r>   -3.1730    1.0000 </r>
       <r>   -0.9493    1.0000 </r>
       <r>   -0.9493    1.0000 </r>
       <r>   -0.0239    1.0000 </r>
       <r>    1.8559    1.0000 </r>
       <r>    1.8559    1.0000 </r>
       <r>    2.1269    1.0000 </r>
       <r>    2.5661    1.0000 </r>
       <r>    3.2224    1.0000 </r>
       <r>    3.2224    1.0000 </r>
       <r>    3.4411    1.0000 </r>
       <r>    4.6643    1.0000 </r>
       <r>    4.8635    1.0000 </r>
       <r>    7.1377    0.0000 </r>
       <r>    7.3752    0.0000 </r>
       <r>    7.3752    0.0000 </r>
       <r>    7.9967    0.0000 </r>
       <r>    8.8135    0.0000 </r>
       <r>    9.1675    0.0000 </r>
       <r>    9.5325    0.0000 </r>
       <r>    9.9835    0.0000 </r>
       <r>    9.9835    0.0000 </r>
      </set>
      <set comment="kpoint 13">
       <r>   -5.0942    1.0000 </r>
       <r>   -4.5885    1.0000 </r>
       <r>   -3.0948    1.0000 </r>
       <r>   -3.0948    1.0000 </r>
       <r>   -1.0840    1.0000 </r>
       <r>   -1.0840    1.0000 </r>
       <r>    0.6896    1.0000 </r>
       <r>    1.3937    1.0000 </r>
       <r>    1.8107    1.0000 </r>
       <r>    1.8107    1.0000 </r>
       <r>    3.1134    1.0000 </r>
       <r>    3.1134    1.0000 </r>
       <r>    3.2988    1.0000 </r>
       <r>    3.7720    1.0000 </r>
       <r>    4.1264    1.0000 </r>
       <r>    4.1898    1.0000 </r>
       <r>    7.5200    0.0000 </r>
       <r>    7.9153    0.0000 </r>
       <r>    8.3886    0.0000 </r>
       <r>    8.3886    0.0000 </r>
       <r>    9.2931    0.0000 </r>
       <r>    9.6761    0.0000 </r>
       <r>    9.6761    0.0000 </r>
       <r>    9.7143    0.0000 </r>
       <r>   10.2069    0.0000 </r>
      </set>
      <set comment="kpoint 14">
       <r>   -5.2279    1.0000 </r>
       <r>   -3.8004    1.0000 </r>
       <r>   -3.8004    1.0000 </r>
       <r>   -3.2192    1.0000 </r>
       <r>   -1.0714    1.0000 </r>
       <r>   -0.4200    1.0000 </r>
       <r>   -0.4200    1.0000 </r>
       <r>    1.3992    1.0000 </r>
       <r>    1.8883    1.0000 </r>
       <r>    2.4547    1.0000 </r>
       <r>    2.4547    1.0000 </r>
       <r>    3.5225    1.0000 </r>
       <r>    3.5225    1.0000 </r>
       <r>    3.6023    1.0000 </r>
       <r>    4.2794    1.0000 </r>
       <r>    4.9920    1.0000 </r>
       <r>    7.3210    0.0000 </r>
       <r>    7.6530    0.0000 </r>
       <r>    7.6530    0.0000 </r>
       <r>    7.8701    0.0000 </r>
       <r>    9.0752    0.0000 </r>
       <r>    9.3663    0.0000 </r>
       <r>   10.1735    0.0000 </r>
       <r>   10.1735    0.0000 </r>
       <r>   10.3930    0.0000 </r>
      </set>
      <set comment="kpoint 15">
       <r>   -4.8557    1.0000 </r>
       <r>   -4.3738    1.0000 </r>
       <r>   -3.5769    1.0000 </r>
       <r>   -3.3603    1.0000 </r>
       <r>   -1.0323    1.0000 </r>
       <r>   -0.7932    1.0000 </r>
       <r>    0.1274    1.0000 </r>
       <r>    0.7282    1.0000 </r>
       <r>    2.0597    1.0000 </r>
       <r>    2.2818    1.0000 </r>
       <r>    3.1275    1.0000 </r>
       <r>    3.5911    1.0000 </r>
       <r>    3.6794    1.0000 </r>
       <r>    3.7373    1.0000 </r>
       <r>    4.0041    1.0000 </r>
       <r>    4.6034    1.0000 </r>
       <r>    7.8982    0.0000 </r>
       <r>    7.9996    0.0000 </r>
       <r>    8.1290    0.0000 </r>
       <r>    8.6124    0.0000 </r>
       <r>    8.9578    0.0000 </r>
       <r>    8.9806    0.0000 </r>
       <r>    9.4267    0.0000 </r>
       <r>    9.8381    0.0000 </r>
       <r>    9.8652    0.0000 </r>
      </set>
      <set comment="kpoint 16">
       <r>   -4.5088    1.0000 </r>
       <r>   -4.0712    1.0000 </r>
       <r>   -4.0712    1.0000 </r>
       <r>   -3.7135    1.0000 </r>
       <r>   -0.7932    1.0000 </r>
       <r>   -0.3905    1.0000 </r>
       <r>   -0.3905    1.0000 </r>
       <r>    0.1209    1.0000 </r>
       <r>    2.3873    1.0000 </r>
       <r>    2.7657    1.0000 </r>
       <r>    2.7657    1.0000 </r>
       <r>    3.2539    1.0000 </r>
       <r>    4.1133    1.0000 </r>
       <r>    4.1950    1.0000 </r>
       <r>    4.1950    1.0000 </r>
       <r>    4.6295    1.0000 </r>
       <r>    7.8670    0.0000 </r>
       <r>    8.1344    0.0000 </r>
       <r>    8.3510    0.0000 </r>
       <r>    8.3510    0.0000 </r>
       <r>    9.0304    0.0000 </r>
       <r>    9.0304    0.0000 </r>
       <r>    9.4149    0.0000 </r>
       <r>    9.4576    0.0000 </r>
       <r>   10.0207    0.0000 </r>
      </set>
      <set comment="kpoint 17">
       <r>   -4.9872    1.0000 </r>
       <r>   -3.6979    1.0000 </r>
       <r>   -3.6979    1.0000 </r>
       <r>   -3.6979    1.0000 </r>
       <r>   -0.8212    1.0000 </r>
       <r>   -0.8212    1.0000 </r>
       <r>   -0.8212    1.0000 </r>
       <r>    0.6966    1.0000 </r>
       <r>    2.6868    1.0000 </r>
       <r>    2.6868    1.0000 </r>
       <r>    2.6868    1.0000 </r>
       <r>    3.7958    1.0000 </r>
       <r>    3.7958    1.0000 </r>
       <r>    3.7958    1.0000 </r>
       <r>    4.7170    1.0000 </r>
       <r>    4.7170    1.0000 </r>
       <r>    7.4180    0.0000 </r>
       <r>    7.5886    0.0000 </r>
       <r>    7.5886    0.0000 </r>
       <r>    7.5886    0.0000 </r>
       <r>    9.1878    0.0000 </r>
       <r>    9.1878    0.0000 </r>
       <r>   10.0936    0.0000 </r>
       <r>   10.0936    0.0000 </r>
       <r>   10.0936    0.0000 </r>
      </set>
      <set comment="kpoint 18">
       <r>   -4.6370    1.0000 </r>
       <r>   -4.1953    1.0000 </r>
       <r>   -3.6151    1.0000 </r>
       <r>   -3.6151    1.0000 </r>
       <r>   -1.0785    1.0000 </r>
       <r>   -1.0785    1.0000 </r>
       <r>   -0.4364    1.0000 </r>
       <r>    0.0747    1.0000 </r>
       <r>    2.8392    1.0000 </r>
       <r>    2.8392    1.0000 </r>
       <r>    3.5906    1.0000 </r>
       <r>    3.9108    1.0000 </r>
       <r>    3.9108    1.0000 </r>
       <r>    4.0669    1.0000 </r>
       <r>    4.3889    1.0000 </r>
       <r>    4.3986    1.0000 </r>
       <r>    7.6424    0.0000 </r>
       <r>    7.8427    0.0000 </r>
       <r>    8.0704    0.0000 </r>
       <r>    8.0704    0.0000 </r>
       <r>    8.9534    0.0000 </r>
       <r>    9.1196    0.0000 </r>
       <r>    9.1196    0.0000 </r>
       <r>    9.1953    0.0000 </r>
       <r>    9.4782    0.0000 </r>
      </set>
      <set comment="kpoint 19">
       <r>   -4.3292    1.0000 </r>
       <r>   -3.9670    1.0000 </r>
       <r>   -3.9670    1.0000 </r>
       <r>   -3.7498    1.0000 </r>
       <r>   -1.1198    1.0000 </r>
       <r>   -0.8837    1.0000 </r>
       <r>   -0.8837    1.0000 </r>
       <r>   -0.4819    1.0000 </r>
       <r>    3.2742    1.0000 </r>
       <r>    3.5633    1.0000 </r>
       <r>    3.5633    1.0000 </r>
       <r>    4.0633    1.0000 </r>
       <r>    4.2282    1.0000 </r>
       <r>    4.2676    1.0000 </r>
       <r>    4.2676    1.0000 </r>
       <r>    4.5854    1.0000 </r>
       <r>    7.5559    0.0000 </r>
       <r>    7.8751    0.0000 </r>
       <r>    7.9296    0.0000 </r>
       <r>    7.9296    0.0000 </r>
       <r>    8.8795    0.0000 </r>
       <r>    8.8795    0.0000 </r>
       <r>    9.1387    0.0000 </r>
       <r>    9.1554    0.0000 </r>
       <r>    9.1865    0.0000 </r>
      </set>
      <set comment="kpoint 20">
       <r>   -4.0996    1.0000 </r>
       <r>   -3.8825    1.0000 </r>
       <r>   -3.8825    1.0000 </r>
       <r>   -3.8825    1.0000 </r>
       <r>   -1.1800    1.0000 </r>
       <r>   -1.1800    1.0000 </r>
       <r>   -1.1800    1.0000 </r>
       <r>   -0.9452    1.0000 </r>
       <r>    4.1129    1.0000 </r>
       <r>    4.1129    1.0000 </r>
       <r>    4.1129    1.0000 </r>
       <r>    4.3680    1.0000 </r>
       <r>    4.3680    1.0000 </r>
       <r>    4.3680    1.0000 </r>
       <r>    4.4966    1.0000 </r>
       <r>    4.4966    1.0000 </r>
       <r>    7.1668    0.0000 </r>
       <r>    7.4768    0.0000 </r>
       <r>    7.4768    0.0000 </r>
       <r>    7.4768    0.0000 </r>
       <r>    8.9475    0.0000 </r>
       <r>    8.9475    0.0000 </r>
       <r>    8.9475    0.0000 </r>
       <r>    9.0492    0.0000 </r>
       <r>    9.0492    0.0000 </r>
      </set>
     </set>
    </set>
   </array>
  </eigenvalues>
  <separator name="orbital magnetization" >
   <v name="MAGDIPOLOUT">      0.00000000      0.00000000      0.00000000</v>
  </separator>
  <dos>
   <i name="efermi">      5.99965175 </i>
   <total>
    <array>
     <dimension dim="1">gridpoints</dimension>
     <dimension dim="2">spin</dimension>
     <field>energy</field>
     <field>total</field>
     <field>integrated</field>
     <set>
      <set comment="spin 1">
       <r>    -7.1390     0.0000     0.0000 </r>
       <r>    -7.0757     0.0000     0.0000 </r>
       <r>    -7.0124     0.0000     0.0000 </r>
       <r>    -6.9490     0.0000     0.0000 </r>
       <r>    -6.8857     0.0000     0.0000 </r>
       <r>    -6.8224     0.0000     0.0000 </r>
       <r>    -6.7591     0.0000     0.0000 </r>
       <r>    -6.6958     0.0000     0.0000 </r>
       <r>    -6.6325     0.0000     0.0000 </r>
       <r>    -6.5691     0.0000     0.0000 </r>
       <r>    -6.5058     0.0000     0.0000 </r>
       <r>    -6.4425     0.0000     0.0000 </r>
       <r>    -6.3792     0.0002     0.0000 </r>
       <r>    -6.3159     0.0029     0.0002 </r>
       <r>    -6.2526     0.0240     0.0017 </r>
       <r>    -6.1892     0.0975     0.0079 </r>
       <r>    -6.1259     0.2230     0.0220 </r>
       <r>    -6.0626     0.3888     0.0466 </r>
       <r>    -5.9993     0.5858     0.0837 </r>
       <r>    -5.9360     0.6832     0.1270 </r>
       <r>    -5.8727     0.7164     0.1723 </r>
       <r>    -5.8093     0.7710     0.2211 </r>
       <r>    -5.7460     0.8867     0.2773 </r>
       <r>    -5.6827     1.0535     0.3440 </r>
       <r>    -5.6194     1.2323     0.4220 </r>
       <r>    -5.5561     1.2449     0.5008 </r>
       <r>    -5.4927     1.0205     0.5655 </r>
       <r>    -5.4294     0.9293     0.6243 </r>
       <r>    -5.3661     1.1554     0.6975 </r>
       <r>    -5.3028     1.5313     0.7944 </r>
       <r>    -5.2395     1.8437     0.9112 </r>
       <r>    -5.1762     1.8466     1.0281 </r>
       <r>    -5.1128     1.4077     1.1172 </r>
       <r>    -5.0495     1.1586     1.1906 </r>
       <r>    -4.9862     1.4008     1.2793 </r>
       <r>    -4.9229     1.7421     1.3896 </r>
       <r>    -4.8596     1.9149     1.5108 </r>
       <r>    -4.7963     1.8767     1.6296 </r>
       <r>    -4.7329     1.7669     1.7415 </r>
       <r>    -4.6696     2.0245     1.8697 </r>
       <r>    -4.6063     2.3209     2.0167 </r>
       <r>    -4.5430     2.3001     2.1623 </r>
       <r>    -4.4797     2.2497     2.3047 </r>
       <r>    -4.4164     2.2428     2.4467 </r>
       <r>    -4.3530     2.0832     2.5786 </r>
       <r>    -4.2897     1.6795     2.6850 </r>
       <r>    -4.2264     1.5878     2.7855 </r>
       <r>    -4.1631     2.4510     2.9407 </r>
       <r>    -4.0998     3.5423     3.1650 </r>
       <r>    -4.0365     3.8179     3.4067 </r>
       <r>    -3.9731     3.3903     3.6214 </r>
       <r>    -3.9098     3.0669     3.8156 </r>
       <r>    -3.8465     3.0981     4.0117 </r>
       <r>    -3.7832     3.2481     4.2174 </r>
       <r>    -3.7199     3.3634     4.4304 </r>
       <r>    -3.6566     3.4958     4.6517 </r>
       <r>    -3.5932     3.6686     4.8840 </r>
       <r>    -3.5299     3.0964     5.0800 </r>
       <r>    -3.4666     1.9509     5.2036 </r>
       <r>    -3.4033     1.9043     5.3241 </r>
       <r>    -3.3400     2.8810     5.5066 </r>
       <r>    -3.2767     3.7102     5.7415 </r>
       <r>    -3.2133     4.2086     6.0079 </r>
       <r>    -3.1500     4.1392     6.2700 </r>
       <r>    -3.0867     3.1600     6.4701 </r>
       <r>    -3.0234     2.0820     6.6019 </r>
       <r>    -2.9601     1.6874     6.7088 </r>
       <r>    -2.8968     1.5149     6.8047 </r>
       <r>    -2.8334     1.2217     6.8820 </r>
       <r>    -2.7701     1.1972     6.9578 </r>
       <r>    -2.7068     1.2694     7.0382 </r>
       <r>    -2.6435     1.4775     7.1318 </r>
       <r>    -2.5802     2.2607     7.2749 </r>
       <r>    -2.5169     2.9758     7.4633 </r>
       <r>    -2.4535     2.9922     7.6528 </r>
       <r>    -2.3902     2.5781     7.8160 </r>
       <r>    -2.3269     1.8202     7.9313 </r>
       <r>    -2.2636     0.8413     7.9846 </r>
       <r>    -2.2003     0.2145     7.9981 </r>
       <r>    -2.1369     0.0277     7.9999 </r>
       <r>    -2.0736     0.0017     8.0000 </r>
       <r>    -2.0103     0.0001     8.0000 </r>
       <r>    -1.9470     0.0000     8.0000 </r>
       <r>    -1.8837     0.0003     8.0000 </r>
       <r>    -1.8204     0.0078     8.0005 </r>
       <r>    -1.7570     0.1067     8.0073 </r>
       <r>    -1.6937     0.7134     8.0524 </r>
       <r>    -1.6304     2.3670     8.2023 </r>
       <r>    -1.5671     3.9702     8.4537 </r>
       <r>    -1.5038     3.5994     8.6816 </r>
       <r>    -1.4405     2.2224     8.8223 </r>
       <r>    -1.3771     1.3217     8.9060 </r>
       <r>    -1.3138     1.0342     8.9715 </r>
       <r>    -1.2505     1.5582     9.0701 </r>
       <r>    -1.1872     2.5404     9.2310 </r>
       <r>    -1.1239     3.8088     9.4721 </r>
       <r>    -1.0606     5.1647     9.7992 </r>
       <r>    -0.9972     5.3107    10.1354 </r>
       <r>    -0.9339     4.6045    10.4270 </r>
       <r>    -0.8706     4.8594    10.7346 </r>
       <r>    -0.8073     5.5329    11.0850 </r>
       <r>    -0.7440     4.7368    11.3849 </r>
       <r>    -0.6807     3.0447    11.5777 </r>
       <r>    -0.6173     1.9533    11.7013 </r>
       <r>    -0.5540     1.6592    11.8064 </r>
       <r>    -0.4907     2.5630    11.9687 </r>
       <r>    -0.4274     3.9941    12.2216 </r>
       <r>    -0.3641     3.7971    12.4620 </r>
       <r>    -0.3008     1.9694    12.5867 </r>
       <r>    -0.2374     0.5683    12.6227 </r>
       <r>    -0.1741     0.3280    12.6434 </r>
       <r>    -0.1108     0.8654    12.6982 </r>
       <r>    -0.0475     1.5569    12.7968 </r>
       <r>     0.0158     2.0169    12.9245 </r>
       <r>     0.0791     2.7567    13.0991 </r>
       <r>     0.1425     3.2724    13.3063 </r>
       <r>     0.2058     2.6486    13.4740 </r>
       <r>     0.2691     1.7007    13.5817 </r>
       <r>     0.3324     0.9860    13.6441 </r>
       <r>     0.3957     0.6328    13.6841 </r>
       <r>     0.4590     0.5823    13.7210 </r>
       <r>     0.5224     0.5617    13.7566 </r>
       <r>     0.5857     0.9890    13.8192 </r>
       <r>     0.6490     2.0621    13.9498 </r>
       <r>     0.7123     2.7960    14.1268 </r>
       <r>     0.7756     2.2172    14.2672 </r>
       <r>     0.8389     0.9655    14.3283 </r>
       <r>     0.9023     0.2193    14.3422 </r>
       <r>     0.9656     0.0487    14.3453 </r>
       <r>     1.0289     0.1805    14.3567 </r>
       <r>     1.0922     0.6219    14.3961 </r>
       <r>     1.1555     1.0335    14.4615 </r>
       <r>     1.2188     0.9551    14.5220 </r>
       <r>     1.2822     1.0766    14.5902 </r>
       <r>     1.3455     2.0727    14.7214 </r>
       <r>     1.4088     3.3663    14.9346 </r>
       <r>     1.4721     4.3232    15.2083 </r>
       <r>     1.5354     4.2366    15.4765 </r>
       <r>     1.5988     3.1667    15.6770 </r>
       <r>     1.6621     2.8935    15.8603 </r>
       <r>     1.7254     3.4987    16.0818 </r>
       <r>     1.7887     4.3649    16.3582 </r>
       <r>     1.8520     5.1319    16.6831 </r>
       <r>     1.9153     4.8519    16.9903 </r>
       <r>     1.9787     4.3998    17.2689 </r>
       <r>     2.0420     4.6496    17.5633 </r>
       <r>     2.1053     4.5627    17.8522 </r>
       <r>     2.1686     4.0494    18.1086 </r>
       <r>     2.2319     4.2941    18.3805 </r>
       <r>     2.2952     4.5102    18.6660 </r>
       <r>     2.3586     3.8651    18.9108 </r>
       <r>     2.4219     3.7838    19.1503 </r>
       <r>     2.4852     4.1831    19.4152 </r>
       <r>     2.5485     4.0839    19.6738 </r>
       <r>     2.6118     3.9325    19.9228 </r>
       <r>     2.6751     4.7538    20.2238 </r>
       <r>     2.7385     6.6153    20.6426 </r>
       <r>     2.8018     7.7115    21.1309 </r>
       <r>     2.8651     6.8294    21.5633 </r>
       <r>     2.9284     5.0390    21.8824 </r>
       <r>     2.9917     3.9728    22.1339 </r>
       <r>     3.0550     4.9872    22.4497 </r>
       <r>     3.1184     6.7014    22.8740 </r>
       <r>     3.1817     6.7909    23.3040 </r>
       <r>     3.2450     6.3812    23.7080 </r>
       <r>     3.3083     5.6403    24.0651 </r>
       <r>     3.3716     4.0297    24.3203 </r>
       <r>     3.4349     3.7112    24.5553 </r>
       <r>     3.4983     5.3563    24.8944 </r>
       <r>     3.5616     7.5866    25.3748 </r>
       <r>     3.6249     8.4367    25.9090 </r>
       <r>     3.6882     6.9604    26.3497 </r>
       <r>     3.7515     5.1182    26.6737 </r>
       <r>     3.8148     3.7509    26.9112 </r>
       <r>     3.8782     2.6627    27.0798 </r>
       <r>     3.9415     2.8854    27.2625 </r>
       <r>     4.0048     4.4311    27.5431 </r>
       <r>     4.0681     5.9075    27.9171 </r>
       <r>     4.1314     6.5236    28.3302 </r>
       <r>     4.1947     6.5123    28.7425 </r>
       <r>     4.2581     5.6132    29.0979 </r>
       <r>     4.3214     4.3513    29.3735 </r>
       <r>     4.3847     3.8539    29.6175 </r>
       <r>     4.4480     3.4006    29.8328 </r>
       <r>     4.5113     2.6326    29.9995 </r>
       <r>     4.5746     3.0660    30.1936 </r>
       <r>     4.6380     4.4029    30.4724 </r>
       <r>     4.7013     4.6186    30.7648 </r>
       <r>     4.7646     3.3222    30.9752 </r>
       <r>     4.8279     1.8331    31.0912 </r>
       <r>     4.8912     1.0541    31.1580 </r>
       <r>     4.9546     0.8984    31.2149 </r>
       <r>     5.0179     1.2803    31.2959 </r>
       <r>     5.0812     2.0432    31.4253 </r>
       <r>     5.1445     2.4581    31.5809 </r>
       <r>     5.2078     1.8992    31.7012 </r>
       <r>     5.2711     1.0650    31.7686 </r>
       <r>     5.3345     0.7169    31.8140 </r>
       <r>     5.3978     0.6278    31.8538 </r>
       <r>     5.4611     0.6516    31.8950 </r>
       <r>     5.5244     0.6557    31.9365 </r>
       <r>     5.5877     0.5349    31.9704 </r>
       <r>     5.6510     0.3254    31.9910 </r>
       <r>     5.7144     0.1182    31.9985 </r>
       <r>     5.7777     0.0218    31.9999 </r>
       <r>     5.8410     0.0019    32.0000 </r>
       <r>     5.9043     0.0001    32.0000 </r>
       <r>     5.9676     0.0000    32.0000 </r>
       <r>     6.0309     0.0000    32.0000 </r>
       <r>     6.0943     0.0000    32.0000 </r>
       <r>     6.1576     0.0002    32.0000 </r>
       <r>     6.2209     0.0042    32.0003 </r>
       <r>     6.2842     0.0517    32.0035 </r>
       <r>     6.3475     0.2970    32.0224 </r>
       <r>     6.4108     0.8165    32.0741 </r>
       <r>     6.4742     1.1420    32.1464 </r>
       <r>     6.5375     0.9954    32.2094 </r>
       <r>     6.6008     0.7796    32.2587 </r>
       <r>     6.6641     0.7413    32.3057 </r>
       <r>     6.7274     1.0662    32.3732 </r>
       <r>     6.7907     1.8339    32.4893 </r>
       <r>     6.8541     2.6657    32.6581 </r>
       <r>     6.9174     2.7318    32.8311 </r>
       <r>     6.9807     2.0084    32.9582 </r>
       <r>     7.0440     1.4697    33.0513 </r>
       <r>     7.1073     2.1925    33.1901 </r>
       <r>     7.1706     3.6008    33.4181 </r>
       <r>     7.2340     3.7339    33.6545 </r>
       <r>     7.2973     2.8111    33.8325 </r>
       <r>     7.3606     2.5366    33.9931 </r>
       <r>     7.4239     2.9320    34.1788 </r>
       <r>     7.4872     3.1639    34.3791 </r>
       <r>     7.5505     3.5398    34.6032 </r>
       <r>     7.6139     4.2490    34.8723 </r>
       <r>     7.6772     4.4267    35.1525 </r>
       <r>     7.7405     4.6898    35.4495 </r>
       <r>     7.8038     6.5126    35.8618 </r>
       <r>     7.8671     8.4828    36.3989 </r>
       <r>     7.9304     8.3180    36.9256 </r>
       <r>     7.9938     6.4906    37.3366 </r>
       <r>     8.0571     5.2435    37.6686 </r>
       <r>     8.1204     5.0684    37.9895 </r>
       <r>     8.1837     4.7380    38.2895 </r>
       <r>     8.2470     4.4007    38.5681 </r>
       <r>     8.3104     5.2074    38.8979 </r>
       <r>     8.3737     6.4211    39.3044 </r>
       <r>     8.4370     5.9499    39.6811 </r>
       <r>     8.5003     4.1324    39.9428 </r>
       <r>     8.5636     3.4057    40.1584 </r>
       <r>     8.6269     3.9678    40.4097 </r>
       <r>     8.6903     4.0602    40.6668 </r>
       <r>     8.7536     3.6453    40.8976 </r>
       <r>     8.8169     4.4534    41.1795 </r>
       <r>     8.8802     6.9886    41.6220 </r>
       <r>     8.9435     9.5562    42.2271 </r>
       <r>     9.0068    10.2781    42.8779 </r>
       <r>     9.0702     9.1130    43.4549 </r>
       <r>     9.1335     7.6014    43.9362 </r>
       <r>     9.1968     6.0063    44.3165 </r>
       <r>     9.2601     4.4638    44.5991 </r>
       <r>     9.3234     4.7603    44.9005 </r>
       <r>     9.3867     6.3769    45.3043 </r>
       <r>     9.4501     7.0811    45.7527 </r>
       <r>     9.5134     6.5955    46.1703 </r>
       <r>     9.5767     5.7303    46.5331 </r>
       <r>     9.6400     4.7410    46.8333 </r>
       <r>     9.7033     3.6828    47.0665 </r>
       <r>     9.7666     3.4141    47.2826 </r>
       <r>     9.8300     4.3327    47.5570 </r>
       <r>     9.8933     5.1134    47.8807 </r>
       <r>     9.9566     5.0382    48.1997 </r>
       <r>    10.0199     4.5447    48.4875 </r>
       <r>    10.0832     3.9346    48.7366 </r>
       <r>    10.1465     3.7501    48.9741 </r>
       <r>    10.2099     3.7399    49.2109 </r>
       <r>    10.2732     3.4224    49.4276 </r>
       <r>    10.3365     2.8316    49.6069 </r>
       <r>    10.3998     1.9573    49.7308 </r>
       <r>    10.4631     1.0008    49.7942 </r>
       <r>    10.5264     0.5010    49.8259 </r>
       <r>    10.5898     0.5093    49.8581 </r>
       <r>    10.6531     0.4781    49.8884 </r>
       <r>    10.7164     0.2602    49.9049 </r>
       <r>    10.7797     0.2233    49.9190 </r>
       <r>    10.8430     0.4300    49.9462 </r>
       <r>    10.9063     0.4958    49.9776 </r>
       <r>    10.9697     0.2732    49.9949 </r>
       <r>    11.0330     0.0710    49.9994 </r>
       <r>    11.0963     0.0087    50.0000 </r>
       <r>    11.1596     0.0005    50.0000 </r>
       <r>    11.2229     0.0000    50.0000 </r>
       <r>    11.2862     0.0000    50.0000 </r>
       <r>    11.3496     0.0000    50.0000 </r>
       <r>    11.4129     0.0000    50.0000 </r>
       <r>    11.4762     0.0000    50.0000 </r>
       <r>    11.5395     0.0000    50.0000 </r>
       <r>    11.6028     0.0000    50.0000 </r>
       <r>    11.6661     0.0000    50.0000 </r>
       <r>    11.7295     0.0000    50.0000 </r>
       <r>    11.7928     0.0000    50.0000 </r>
       <r>    11.8561     0.0000    50.0000 </r>
      </set>
     </set>
    </array>
   </total>
  </dos>
 </calculation>
 <structure name="finalpos" >
  <crystal>
   <varray name="basis" >
    <v>       5.46380677       0.00000000      -0.00000000 </v>
    <v>       0.00000000       5.46380677       0.00000000 </v>
    <v>       0.00000000       0.00000000       5.46380677 </v>
   </varray>
   <i name="volume">    163.11203119 </i>
   <varray name="rec_basis" >
    <v>       0.18302258      -0.00000000      -0.00000000 </v>
    <v>      -0.00000000       0.18302258      -0.00000000 </v>
    <v>       0.00000000      -0.00000000       0.18302258 </v>
   </varray>
  </crystal>
  <varray name="positions" >
   <v>       0.00000000      -0.00000000       0.00000000 </v>
   <v>       0.00000000       0.50000000       0.50000000 </v>
   <v>       0.50000000      -0.00000000       0.50000000 </v>
   <v>       0.50000000       0.50000000       0.00000000 </v>
   <v>       0.25000000       0.25000000       0.25000000 </v>
   <v>       0.75000000       0.75000000       0.25000000 </v>
   <v>       0.75000000       0.25000000       0.75000000 </v>
   <v>       0.25000000       0.75000000       0.75000000 </v>
  </varray>
 </structure>
</modeling>
