diamond Si                              
           1
     5.544869    0.000000   -0.000000
     0.000000    5.544869    0.000000
     0.000000    0.000000    5.544869
   Si
   8
Direct configuration=     1
   0.00000000  0.00000000  0.00000000
   0.00000000  0.50000000  0.50000000
   0.50000000  0.00000000  0.50000000
   0.50000000  0.50000000  0.00000000
   0.25000000  0.25000000  0.25000000
   0.75000000  0.75000000  0.25000000
   0.75000000  0.25000000  0.75000000
   0.25000000  0.75000000  0.75000000
diamond Si                              
           1
     5.465440    0.000000   -0.000000
     0.000000    5.465440    0.000000
     0.000000    0.000000    5.465440
   Si
   8
Direct configuration=     2
   0.00000000 -0.00000000  0.00000000
   0.00000000  0.50000000  0.50000000
   0.50000000 -0.00000000  0.50000000
   0.50000000  0.50000000  0.00000000
   0.25000000  0.25000000  0.25000000
   0.75000000  0.75000000  0.25000000
   0.75000000  0.25000000  0.75000000
   0.25000000  0.75000000  0.75000000
diamond Si                              
           1
     5.463807    0.000000   -0.000000
     0.000000    5.463807    0.000000
     0.000000    0.000000    5.463807
   Si
   8
Direct configuration=     3
   0.00000000 -0.00000000  0.00000000
   0.00000000  0.50000000  0.50000000
   0.50000000 -0.00000000  0.50000000
   0.50000000  0.50000000  0.00000000
   0.25000000  0.25000000  0.25000000
   0.75000000  0.75000000  0.25000000
   0.75000000  0.25000000  0.75000000
   0.25000000  0.75000000  0.75000000
diamond Si                              
           1
     5.463807    0.000000   -0.000000
     0.000000    5.463807    0.000000
     0.000000    0.000000    5.463807
   Si
   8
Direct configuration=     4
   0.00000000 -0.00000000  0.00000000
   0.00000000  0.50000000  0.50000000
   0.50000000 -0.00000000  0.50000000
   0.50000000  0.50000000  0.00000000
   0.25000000  0.25000000  0.25000000
   0.75000000  0.75000000  0.25000000
   0.75000000  0.25000000  0.75000000
   0.25000000  0.75000000  0.75000000
