   8   8   0   0
  0.2002393E+02  0.5431000E-09  0.5431000E-09  0.5431000E-09  0.1000000E-14
  1.000000000000000E-004
  CAR 
 diamond Si                              
     11.84931975     -7.20009785  301      5.91456428      1.00000000
     -7.200  0.0000E+00  0.0000E+00
     -7.137  0.0000E+00  0.0000E+00
     -7.073  0.0000E+00  0.0000E+00
     -7.010  0.0000E+00  0.0000E+00
     -6.946  0.0000E+00  0.0000E+00
     -6.883  0.0000E+00  0.0000E+00
     -6.819  0.0000E+00  0.0000E+00
     -6.756  0.6130E-17  0.3893E-18
     -6.692  0.5234E-14  0.3327E-15
     -6.629  0.2227E-11  0.1417E-12
     -6.565  0.4466E-09  0.2850E-10
     -6.502  0.4301E-07  0.2759E-08
     -6.438  0.2032E-05  0.1318E-06
     -6.375  0.4825E-04  0.3196E-05
     -6.311  0.5898E-03  0.4065E-04
     -6.248  0.3819E-02  0.2832E-03
     -6.184  0.1376E-01  0.1157E-02
     -6.121  0.3060E-01  0.3100E-02
     -6.057  0.4950E-01  0.6243E-02
     -5.994  0.6484E-01  0.1036E-01
     -5.930  0.7458E-01  0.1510E-01
     -5.867  0.8717E-01  0.2063E-01
     -5.803  0.9927E-01  0.2693E-01
     -5.740  0.1048E+00  0.3359E-01
     -5.676  0.1076E+00  0.4042E-01
     -5.613  0.1173E+00  0.4787E-01
     -5.549  0.1363E+00  0.5652E-01
     -5.486  0.1435E+00  0.6564E-01
     -5.422  0.1336E+00  0.7412E-01
     -5.359  0.1321E+00  0.8251E-01
     -5.295  0.1578E+00  0.9253E-01
     -5.232  0.1788E+00  0.1039E+00
     -5.168  0.1755E+00  0.1150E+00
     -5.105  0.1653E+00  0.1255E+00
     -5.041  0.1724E+00  0.1365E+00
     -4.978  0.1842E+00  0.1482E+00
     -4.914  0.1857E+00  0.1600E+00
     -4.851  0.1998E+00  0.1726E+00
     -4.787  0.2283E+00  0.1871E+00
     -4.724  0.2340E+00  0.2020E+00
     -4.660  0.2133E+00  0.2155E+00
     -4.597  0.1988E+00  0.2282E+00
     -4.533  0.2062E+00  0.2413E+00
     -4.470  0.2403E+00  0.2565E+00
     -4.406  0.2848E+00  0.2746E+00
     -4.343  0.2904E+00  0.2930E+00
     -4.279  0.2602E+00  0.3096E+00
     -4.216  0.2625E+00  0.3262E+00
     -4.152  0.2908E+00  0.3447E+00
     -4.089  0.2974E+00  0.3636E+00
     -4.025  0.3058E+00  0.3830E+00
     -3.962  0.3343E+00  0.4042E+00
     -3.898  0.3687E+00  0.4276E+00
     -3.835  0.4197E+00  0.4543E+00
     -3.771  0.4521E+00  0.4830E+00
     -3.708  0.3960E+00  0.5081E+00
     -3.644  0.3138E+00  0.5281E+00
     -3.581  0.3310E+00  0.5491E+00
     -3.517  0.3754E+00  0.5729E+00
     -3.454  0.3331E+00  0.5941E+00
     -3.390  0.2935E+00  0.6127E+00
     -3.327  0.3096E+00  0.6324E+00
     -3.263  0.3383E+00  0.6538E+00
     -3.200  0.3719E+00  0.6775E+00
     -3.136  0.3632E+00  0.7005E+00
     -3.073  0.2916E+00  0.7190E+00
     -3.009  0.2104E+00  0.7324E+00
     -2.946  0.1716E+00  0.7433E+00
     -2.882  0.1720E+00  0.7542E+00
     -2.819  0.2095E+00  0.7675E+00
     -2.755  0.2850E+00  0.7856E+00
     -2.692  0.3253E+00  0.8063E+00
     -2.628  0.2871E+00  0.8245E+00
     -2.565  0.2209E+00  0.8385E+00
     -2.501  0.1517E+00  0.8482E+00
     -2.438  0.9866E-01  0.8544E+00
     -2.374  0.7843E-01  0.8594E+00
     -2.311  0.7830E-01  0.8644E+00
     -2.247  0.8663E-01  0.8699E+00
     -2.184  0.9456E-01  0.8759E+00
     -2.120  0.1038E+00  0.8825E+00
     -2.057  0.1162E+00  0.8898E+00
     -1.993  0.1172E+00  0.8973E+00
     -1.930  0.9398E-01  0.9032E+00
     -1.866  0.6500E-01  0.9074E+00
     -1.803  0.5169E-01  0.9107E+00
     -1.739  0.5022E-01  0.9138E+00
     -1.676  0.5646E-01  0.9174E+00
     -1.612  0.6574E-01  0.9216E+00
     -1.549  0.9941E-01  0.9279E+00
     -1.485  0.2216E+00  0.9420E+00
     -1.422  0.3841E+00  0.9664E+00
     -1.358  0.3979E+00  0.9916E+00
     -1.295  0.2911E+00  0.1010E+01
     -1.231  0.2640E+00  0.1027E+01
     -1.168  0.3686E+00  0.1050E+01
     -1.104  0.5245E+00  0.1084E+01
     -1.041  0.6079E+00  0.1122E+01
     -0.977  0.5952E+00  0.1160E+01
     -0.914  0.5145E+00  0.1193E+01
     -0.850  0.4077E+00  0.1219E+01
     -0.787  0.4132E+00  0.1245E+01
     -0.723  0.4804E+00  0.1275E+01
     -0.660  0.4068E+00  0.1301E+01
     -0.596  0.2366E+00  0.1316E+01
     -0.533  0.1769E+00  0.1327E+01
     -0.469  0.2481E+00  0.1343E+01
     -0.406  0.3182E+00  0.1363E+01
     -0.342  0.2870E+00  0.1382E+01
     -0.279  0.2029E+00  0.1394E+01
     -0.215  0.1504E+00  0.1404E+01
     -0.152  0.1536E+00  0.1414E+01
     -0.088  0.2472E+00  0.1429E+01
     -0.025  0.3403E+00  0.1451E+01
      0.039  0.2924E+00  0.1470E+01
      0.102  0.1687E+00  0.1480E+01
      0.166  0.9284E-01  0.1486E+01
      0.229  0.8733E-01  0.1492E+01
      0.293  0.1339E+00  0.1500E+01
      0.356  0.2100E+00  0.1514E+01
      0.420  0.2365E+00  0.1529E+01
      0.483  0.1680E+00  0.1539E+01
      0.547  0.1099E+00  0.1546E+01
      0.610  0.9399E-01  0.1552E+01
      0.674  0.8316E-01  0.1558E+01
      0.737  0.1108E+00  0.1565E+01
      0.801  0.1904E+00  0.1577E+01
      0.864  0.2267E+00  0.1591E+01
      0.928  0.1600E+00  0.1601E+01
      0.991  0.7910E-01  0.1606E+01
      1.055  0.4918E-01  0.1609E+01
      1.118  0.5272E-01  0.1613E+01
      1.182  0.6825E-01  0.1617E+01
      1.245  0.1079E+00  0.1624E+01
      1.309  0.1947E+00  0.1636E+01
      1.372  0.2685E+00  0.1653E+01
      1.436  0.3075E+00  0.1673E+01
      1.499  0.3815E+00  0.1697E+01
      1.563  0.4622E+00  0.1726E+01
      1.626  0.4798E+00  0.1757E+01
      1.690  0.4577E+00  0.1786E+01
      1.753  0.4875E+00  0.1817E+01
      1.817  0.5692E+00  0.1853E+01
      1.880  0.5882E+00  0.1890E+01
      1.944  0.5124E+00  0.1923E+01
      2.007  0.4241E+00  0.1950E+01
      2.071  0.3737E+00  0.1974E+01
      2.134  0.3953E+00  0.1999E+01
      2.198  0.4712E+00  0.2029E+01
      2.261  0.5154E+00  0.2061E+01
      2.325  0.5159E+00  0.2094E+01
      2.388  0.5241E+00  0.2127E+01
      2.452  0.5272E+00  0.2161E+01
      2.515  0.5157E+00  0.2194E+01
      2.579  0.5039E+00  0.2226E+01
      2.642  0.4829E+00  0.2256E+01
      2.706  0.5112E+00  0.2289E+01
      2.769  0.6048E+00  0.2327E+01
      2.833  0.6869E+00  0.2371E+01
      2.896  0.7192E+00  0.2416E+01
      2.960  0.6978E+00  0.2461E+01
      3.023  0.6776E+00  0.2504E+01
      3.087  0.6731E+00  0.2546E+01
      3.150  0.6435E+00  0.2587E+01
      3.214  0.5975E+00  0.2625E+01
      3.277  0.5881E+00  0.2663E+01
      3.341  0.6619E+00  0.2705E+01
      3.404  0.7393E+00  0.2752E+01
      3.468  0.6850E+00  0.2795E+01
      3.531  0.5512E+00  0.2830E+01
      3.595  0.4953E+00  0.2862E+01
      3.658  0.5620E+00  0.2897E+01
      3.722  0.6373E+00  0.2938E+01
      3.785  0.6511E+00  0.2979E+01
      3.849  0.6064E+00  0.3018E+01
      3.912  0.5460E+00  0.3052E+01
      3.976  0.5202E+00  0.3085E+01
      4.039  0.4973E+00  0.3117E+01
      4.103  0.5143E+00  0.3149E+01
      4.166  0.5993E+00  0.3188E+01
      4.230  0.6227E+00  0.3227E+01
      4.293  0.5337E+00  0.3261E+01
      4.357  0.4346E+00  0.3289E+01
      4.420  0.4018E+00  0.3314E+01
      4.484  0.4417E+00  0.3342E+01
      4.547  0.4787E+00  0.3373E+01
      4.611  0.4083E+00  0.3398E+01
      4.674  0.2924E+00  0.3417E+01
      4.738  0.2383E+00  0.3432E+01
      4.801  0.2325E+00  0.3447E+01
      4.865  0.2265E+00  0.3461E+01
      4.928  0.2313E+00  0.3476E+01
      4.992  0.2286E+00  0.3490E+01
      5.055  0.1811E+00  0.3502E+01
      5.119  0.1429E+00  0.3511E+01
      5.182  0.1366E+00  0.3520E+01
      5.246  0.1214E+00  0.3527E+01
      5.309  0.1067E+00  0.3534E+01
      5.373  0.1051E+00  0.3541E+01
      5.436  0.9351E-01  0.3547E+01
      5.500  0.6595E-01  0.3551E+01
      5.563  0.3854E-01  0.3553E+01
      5.627  0.2082E-01  0.3555E+01
      5.690  0.9348E-02  0.3555E+01
      5.754  0.2578E-02  0.3556E+01
      5.817  0.3685E-03  0.3556E+01
      5.881  0.2586E-04  0.3556E+01
      5.944  0.1544E-05  0.3556E+01
      6.007  0.2117E-04  0.3556E+01
      6.071  0.3175E-03  0.3556E+01
      6.134  0.2310E-02  0.3556E+01
      6.198  0.8441E-02  0.3556E+01
      6.261  0.1727E-01  0.3557E+01
      6.325  0.2956E-01  0.3559E+01
      6.388  0.6384E-01  0.3563E+01
      6.452  0.1168E+00  0.3571E+01
      6.515  0.1411E+00  0.3580E+01
      6.579  0.1382E+00  0.3588E+01
      6.642  0.1513E+00  0.3598E+01
      6.706  0.1772E+00  0.3609E+01
      6.769  0.1900E+00  0.3621E+01
      6.833  0.1803E+00  0.3633E+01
      6.896  0.1912E+00  0.3645E+01
      6.960  0.2652E+00  0.3662E+01
      7.023  0.3229E+00  0.3682E+01
      7.087  0.3125E+00  0.3702E+01
      7.150  0.2794E+00  0.3720E+01
      7.214  0.2818E+00  0.3738E+01
      7.277  0.3600E+00  0.3761E+01
      7.341  0.4314E+00  0.3788E+01
      7.404  0.4236E+00  0.3815E+01
      7.468  0.3975E+00  0.3840E+01
      7.531  0.4215E+00  0.3867E+01
      7.595  0.4756E+00  0.3897E+01
      7.658  0.5354E+00  0.3931E+01
      7.722  0.6259E+00  0.3971E+01
      7.785  0.7066E+00  0.4016E+01
      7.849  0.7397E+00  0.4063E+01
      7.912  0.7688E+00  0.4112E+01
      7.976  0.7608E+00  0.4160E+01
      8.039  0.6580E+00  0.4202E+01
      8.103  0.5770E+00  0.4238E+01
      8.166  0.6105E+00  0.4277E+01
      8.230  0.6481E+00  0.4318E+01
      8.293  0.5705E+00  0.4354E+01
      8.357  0.4694E+00  0.4384E+01
      8.420  0.4745E+00  0.4414E+01
      8.484  0.5244E+00  0.4448E+01
      8.547  0.5435E+00  0.4482E+01
      8.611  0.5471E+00  0.4517E+01
      8.674  0.5367E+00  0.4551E+01
      8.738  0.5026E+00  0.4583E+01
      8.801  0.5624E+00  0.4619E+01
      8.865  0.7967E+00  0.4669E+01
      8.928  0.1004E+01  0.4733E+01
      8.992  0.9672E+00  0.4794E+01
      9.055  0.7958E+00  0.4845E+01
      9.119  0.6841E+00  0.4888E+01
      9.182  0.6664E+00  0.4931E+01
      9.246  0.7114E+00  0.4976E+01
      9.309  0.7669E+00  0.5025E+01
      9.373  0.7786E+00  0.5074E+01
      9.436  0.7260E+00  0.5120E+01
      9.500  0.6302E+00  0.5160E+01
      9.563  0.5672E+00  0.5196E+01
      9.627  0.5532E+00  0.5231E+01
      9.690  0.5184E+00  0.5264E+01
      9.754  0.4569E+00  0.5293E+01
      9.817  0.3985E+00  0.5318E+01
      9.881  0.3889E+00  0.5343E+01
      9.944  0.4233E+00  0.5370E+01
     10.008  0.4432E+00  0.5398E+01
     10.071  0.4171E+00  0.5425E+01
     10.135  0.3821E+00  0.5449E+01
     10.198  0.3971E+00  0.5474E+01
     10.262  0.3985E+00  0.5499E+01
     10.325  0.3021E+00  0.5519E+01
     10.389  0.1893E+00  0.5531E+01
     10.452  0.1222E+00  0.5538E+01
     10.516  0.8583E-01  0.5544E+01
     10.579  0.6242E-01  0.5548E+01
     10.643  0.4276E-01  0.5550E+01
     10.706  0.2828E-01  0.5552E+01
     10.770  0.2014E-01  0.5554E+01
     10.833  0.1600E-01  0.5555E+01
     10.897  0.1018E-01  0.5555E+01
     10.960  0.4080E-02  0.5555E+01
     11.024  0.9177E-03  0.5556E+01
     11.087  0.1062E-03  0.5556E+01
     11.151  0.5966E-05  0.5556E+01
     11.214  0.1575E-06  0.5556E+01
     11.278  0.1920E-08  0.5556E+01
     11.341  0.1071E-10  0.5556E+01
     11.405  0.2717E-13  0.5556E+01
     11.468  0.3153E-16  0.5556E+01
     11.532  0.0000E+00  0.5556E+01
     11.595  0.0000E+00  0.5556E+01
     11.659  0.0000E+00  0.5556E+01
     11.722  0.0000E+00  0.5556E+01
     11.786  0.0000E+00  0.5556E+01
     11.849  0.0000E+00  0.5556E+01
