       N       E                     dE             d eps       ncg     rms          rms(c)
DAV:   1     0.734264639389E+02    0.73426E+02   -0.13429E+04  2800   0.117E+03
DAV:   2    -0.388766282204E+02   -0.11230E+03   -0.10841E+03  3565   0.156E+02
DAV:   3    -0.440315536071E+02   -0.51549E+01   -0.51109E+01  3675   0.311E+01    0.105E+01
DAV:   4    -0.436063707058E+02    0.42518E+00   -0.81578E-01  3740   0.471E+00    0.580E+00
DAV:   5    -0.433721738889E+02    0.23420E+00   -0.45385E-01  3405   0.272E+00    0.521E-01
DAV:   6    -0.433779043267E+02   -0.57304E-02   -0.19458E-02  3680   0.652E-01    0.243E-01
DAV:   7    -0.433802720535E+02   -0.23677E-02   -0.47392E-03  3225   0.298E-01    0.986E-02
DAV:   8    -0.433802885182E+02   -0.16465E-04   -0.14235E-04  3060   0.598E-02
   1 F= -.43380289E+02 E0= -.43380288E+02  d E =-.433803E+02
       N       E                     dE             d eps       ncg     rms          rms(c)
DAV:   1    -0.433966329028E+02   -0.16361E-01   -0.33553E+00  3200   0.737E+00
DAV:   2    -0.434043975644E+02   -0.77647E-02   -0.77646E-02  3590   0.124E+00
DAV:   3    -0.434044843721E+02   -0.86808E-04   -0.86808E-04  3645   0.162E-01    0.220E+00
DAV:   4    -0.433308253470E+02    0.73659E-01   -0.35521E-02  2930   0.674E-01    0.110E+00
DAV:   5    -0.432941765148E+02    0.36649E-01   -0.54432E-02  3275   0.848E-01    0.318E-01
DAV:   6    -0.432939846617E+02    0.19185E-03   -0.28240E-03  3350   0.251E-01    0.118E-01
DAV:   7    -0.432939035335E+02    0.81128E-04   -0.30077E-04  3285   0.668E-02
   2 F= -.43293904E+02 E0= -.43293904E+02  d E =0.863850E-01
       N       E                     dE             d eps       ncg     rms          rms(c)
DAV:   1    -0.434501714364E+02   -0.15619E+00   -0.17089E+00  3185   0.540E+00
DAV:   2    -0.434550045593E+02   -0.48331E-02   -0.48331E-02  3560   0.915E-01
DAV:   3    -0.434550407645E+02   -0.36205E-04   -0.36205E-04  3425   0.108E-01    0.157E+00
DAV:   4    -0.434183200312E+02    0.36721E-01   -0.17551E-02  2840   0.480E-01    0.770E-01
DAV:   5    -0.434002411783E+02    0.18079E-01   -0.26419E-02  3190   0.598E-01    0.248E-01
DAV:   6    -0.434002236794E+02    0.17499E-04   -0.13997E-03  3380   0.181E-01    0.998E-02
DAV:   7    -0.434001492990E+02    0.74380E-04   -0.12166E-04  2200   0.450E-02
   3 F= -.43400149E+02 E0= -.43400149E+02  d E =-.198608E-01
