 vasp.5.4.1 05Feb16 (build Feb 24 2020 14:33:01) complex                        
  
 executed on           IFC91_ompi date 2020.02.27  23:41:08
 running on   40 total cores
 distrk:  each k-point on   40 cores,    1 groups
 distr:  one band on NCORES_PER_BAND=   8 cores,    5 groups


--------------------------------------------------------------------------------------------------------


 INCAR:
 POTCAR:    PAW_PBE Si 05Jan2001                  
 POTCAR:    PAW_PBE Si 05Jan2001                  
   VRHFIN =Si: s2p2                                                             
   LEXCH  = PE                                                                  
   EATOM  =   103.0669 eV,    7.5752 Ry                                         
                                                                                
   TITEL  = PAW_PBE Si 05Jan2001                                                
   LULTRA =        F    use ultrasoft PP ?                                      
   IUNSCR =        1    unscreen: 0-lin 1-nonlin 2-no                           
   RPACOR =    1.500    partial core radius                                     
   POMASS =   28.085; ZVAL   =    4.000    mass and valenz                      
   RCORE  =    1.900    outmost cutoff radius                                   
   RWIGS  =    2.480; RWIGS  =    1.312    wigner-seitz radius (au A)           
   ENMAX  =  245.345; ENMIN  =  184.009 eV                                      
   ICORE  =        2    local potential                                         
   LCOR   =        T    correct aug charges                                     
   LPAW   =        T    paw PP                                                  
   EAUG   =  322.069                                                            
   DEXC   =    0.000                                                            
   RMAX   =    1.950    core radius for proj-oper                               
   RAUG   =    1.300    factor for augmentation sphere                          
   RDEP   =    1.993    radius for radial grids                                 
   RDEPT  =    1.837    core radius for aug-charge                              
                                                                                
   Atomic configuration                                                         
    6 entries                                                                   
     n  l   j            E        occ.                                          
     1  0  0.50     -1785.8828   2.0000                                         
     2  0  0.50      -139.4969   2.0000                                         
     2  1  1.50       -95.5546   6.0000                                         
     3  0  0.50       -10.8127   2.0000                                         
     3  1  0.50        -4.0811   2.0000                                         
     3  2  1.50        -4.0817   0.0000                                         
   Description                                                                  
     l       E           TYP  RCUT    TYP  RCUT                                 
     0    -10.8127223     23  1.900                                             
     0     -7.6451159     23  1.900                                             
     1     -4.0811372     23  1.900                                             
     1      2.4879257     23  1.900                                             
     2     -4.0817478      7  1.900                                             
  local pseudopotential read in
  partial core-charges read in
  partial kinetic energy density read in
  atomic valenz-charges read in
  non local Contribution for L=           0  read in
    real space projection operators read in
  non local Contribution for L=           0  read in
    real space projection operators read in
  non local Contribution for L=           1  read in
    real space projection operators read in
  non local Contribution for L=           1  read in
    real space projection operators read in
    PAW grid and wavefunctions read in
 
   number of l-projection  operators is LMAX  =           4
   number of lm-projection operators is LMMAX =           8
 
  PAW_PBE Si 05Jan2001                  :
 energy of atom  1       EATOM= -103.0669
 kinetic energy error for atom=    0.0003 (will be added to EATOM!!)
 
 
 POSCAR: Si dia                                  
  positions in direct lattice
  No initial velocities read in
 exchange correlation table for  LEXCH =        8
   RHO(1)=    0.500       N(1)  =     2000
   RHO(2)=  100.500       N(2)  =     4000
 


--------------------------------------------------------------------------------------------------------


 ion  position               nearest neighbor table
   1  0.000  0.000  0.000-   5 2.35   6 2.35   7 2.35   8 2.35
   2  0.000  0.500  0.500-   5 2.35   6 2.35   7 2.35   8 2.35
   3  0.500  0.000  0.500-   5 2.35   6 2.35   7 2.35   8 2.35
   4  0.500  0.500  0.000-   5 2.35   6 2.35   7 2.35   8 2.35
   5  0.250  0.250  0.250-   1 2.35   2 2.35   3 2.35   4 2.35
   6  0.750  0.750  0.250-   1 2.35   2 2.35   3 2.35   4 2.35
   7  0.750  0.250  0.750-   1 2.35   2 2.35   3 2.35   4 2.35
   8  0.250  0.750  0.750-   1 2.35   2 2.35   3 2.35   4 2.35
 
  LATTYP: Found a simple cubic cell.
 ALAT       =     5.4310000000
  
  Lattice vectors:
  
 A1 = (   5.4310000000,   0.0000000000,   0.0000000000)
 A2 = (   0.0000000000,   5.4310000000,   0.0000000000)
 A3 = (   0.0000000000,   0.0000000000,   5.4310000000)


Analysis of symmetry for initial positions (statically):
=====================================================================
 Subroutine PRICEL returns following result:
 
  LATTYP: Found a face centered cubic cell.
 ALAT       =     5.4310000000
  
  Lattice vectors:
  
 A1 = (   2.7155000000,   2.7155000000,   0.0000000000)
 A2 = (   2.7155000000,   0.0000000000,  -2.7155000000)
 A3 = (   0.0000000000,   2.7155000000,  -2.7155000000)
 
   4 primitive cells build up your supercell.
 

 Routine SETGRP: Setting up the symmetry group for a 
 simple cubic supercell.


 Subroutine GETGRP returns: Found 48 space group operations
 (whereof 24 operations were pure point group operations)
 out of a pool of 48 trial point group operations.


The static configuration has the point symmetry T_d .
 The point group associated with its full space group is O_h .


Analysis of symmetry for dynamics (positions and initial velocities):
=====================================================================
 Subroutine PRICEL returns following result:
 
  LATTYP: Found a face centered cubic cell.
 ALAT       =     5.4310000000
  
  Lattice vectors:
  
 A1 = (   2.7155000000,   2.7155000000,   0.0000000000)
 A2 = (   2.7155000000,   0.0000000000,  -2.7155000000)
 A3 = (   0.0000000000,   2.7155000000,  -2.7155000000)
 
   4 primitive cells build up your supercell.
 

 Routine SETGRP: Setting up the symmetry group for a 
 simple cubic supercell.


 Subroutine GETGRP returns: Found 48 space group operations
 (whereof 24 operations were pure point group operations)
 out of a pool of 48 trial point group operations.


The dynamic configuration has the point symmetry T_d .
 The point group associated with its full space group is O_h .


 Subroutine INISYM returns: Found 48 space group operations
 (whereof 24 operations are pure point group operations),
 and found     4 'primitive' translations

 
 
 KPOINTS: k-points                                

Automatic generation of k-mesh.
Space group operators:
 irot       det(A)        alpha          n_x          n_y          n_z        tau_x        tau_y        tau_z
    1     1.000000     0.000001     1.000000     0.000000     0.000000     0.000000     0.000000     0.000000
    2     1.000000   120.000000    -0.577350    -0.577350    -0.577350     0.000000     0.000000     0.000000
    3     1.000000   120.000000     0.577350     0.577350     0.577350     0.000000     0.000000     0.000000
    4    -1.000000    90.000000     0.000000     0.000000    -1.000000     0.000000     0.000000     0.000000
    5    -1.000000   180.000000     0.000000     0.707107     0.707107     0.000000     0.000000     0.000000
    6    -1.000000    90.000000     0.000000     1.000000     0.000000     0.000000     0.000000     0.000000
    7     1.000000   180.000000     0.000000     0.000000     1.000000     0.000000     0.000000     0.000000
    8     1.000000   120.000000    -0.577350     0.577350     0.577350     0.000000     0.000000     0.000000
    9     1.000000   120.000000    -0.577350     0.577350    -0.577350     0.000000     0.000000     0.000000
   10    -1.000000    90.000000     0.000000     0.000000     1.000000     0.000000     0.000000     0.000000
   11    -1.000000    90.000000    -1.000000     0.000000     0.000000     0.000000     0.000000     0.000000
   12    -1.000000   180.000000     0.707107     0.000000     0.707107     0.000000     0.000000     0.000000
   13     1.000000   120.000000     0.577350    -0.577350     0.577350     0.000000     0.000000     0.000000
   14     1.000000   120.000000    -0.577350    -0.577350     0.577350     0.000000     0.000000     0.000000
   15     1.000000   180.000000     1.000000     0.000000     0.000000     0.000000     0.000000     0.000000
   16    -1.000000    90.000000     0.000000    -1.000000     0.000000     0.000000     0.000000     0.000000
   17    -1.000000   180.000000     0.707107     0.707107     0.000000     0.000000     0.000000     0.000000
   18    -1.000000    90.000000     1.000000     0.000000     0.000000     0.000000     0.000000     0.000000
   19     1.000000   120.000000     0.577350    -0.577350    -0.577350     0.000000     0.000000     0.000000
   20     1.000000   180.000000     0.000000     1.000000     0.000000     0.000000     0.000000     0.000000
   21     1.000000   120.000000     0.577350     0.577350    -0.577350     0.000000     0.000000     0.000000
   22    -1.000000   180.000000     0.000000    -0.707107     0.707107     0.000000     0.000000     0.000000
   23    -1.000000   180.000000     0.707107    -0.707107     0.000000     0.000000     0.000000     0.000000
   24    -1.000000   180.000000     0.707107     0.000000    -0.707107     0.000000     0.000000     0.000000
   25    -1.000000     0.000001     1.000000     0.000000     0.000000     0.750000     0.750000    -0.750000
   26    -1.000000   120.000000    -0.577350    -0.577350    -0.577350     0.750000     0.750000    -0.750000
   27    -1.000000   120.000000     0.577350     0.577350     0.577350     0.750000     0.750000    -0.750000
   28     1.000000    90.000000     0.000000     0.000000    -1.000000     0.750000     0.750000    -0.750000
   29     1.000000   180.000000     0.000000     0.707107     0.707107     0.750000     0.750000    -0.750000
   30     1.000000    90.000000     0.000000     1.000000     0.000000     0.750000     0.750000    -0.750000
   31    -1.000000   180.000000     0.000000     0.000000     1.000000     0.750000     0.750000    -0.750000
   32    -1.000000   120.000000    -0.577350     0.577350     0.577350     0.750000     0.750000    -0.750000
   33    -1.000000   120.000000    -0.577350     0.577350    -0.577350     0.750000     0.750000    -0.750000
   34     1.000000    90.000000     0.000000     0.000000     1.000000     0.750000     0.750000    -0.750000
   35     1.000000    90.000000    -1.000000     0.000000     0.000000     0.750000     0.750000    -0.750000
   36     1.000000   180.000000     0.707107     0.000000     0.707107     0.750000     0.750000    -0.750000
   37    -1.000000   120.000000     0.577350    -0.577350     0.577350     0.750000     0.750000    -0.750000
   38    -1.000000   120.000000    -0.577350    -0.577350     0.577350     0.750000     0.750000    -0.750000
   39    -1.000000   180.000000     1.000000     0.000000     0.000000     0.750000     0.750000    -0.750000
   40     1.000000    90.000000     0.000000    -1.000000     0.000000     0.750000     0.750000    -0.750000
   41     1.000000   180.000000     0.707107     0.707107     0.000000     0.750000     0.750000    -0.750000
   42     1.000000    90.000000     1.000000     0.000000     0.000000     0.750000     0.750000    -0.750000
   43    -1.000000   120.000000     0.577350    -0.577350    -0.577350     0.750000     0.750000    -0.750000
   44    -1.000000   180.000000     0.000000     1.000000     0.000000     0.750000     0.750000    -0.750000
   45    -1.000000   120.000000     0.577350     0.577350    -0.577350     0.750000     0.750000    -0.750000
   46     1.000000   180.000000     0.000000    -0.707107     0.707107     0.750000     0.750000    -0.750000
   47     1.000000   180.000000     0.707107    -0.707107     0.000000     0.750000     0.750000    -0.750000
   48     1.000000   180.000000     0.707107     0.000000    -0.707107     0.750000     0.750000    -0.750000
 
 Subroutine IBZKPT returns following result:
 ===========================================
 
 Found     56 irreducible k-points:
 
 Following reciprocal coordinates:
            Coordinates               Weight
  0.000000  0.000000  0.000000      1.000000
  0.090909  0.000000  0.000000      6.000000
  0.181818  0.000000  0.000000      6.000000
  0.272727  0.000000  0.000000      6.000000
  0.363636  0.000000  0.000000      6.000000
  0.454545  0.000000  0.000000      6.000000
  0.090909  0.090909  0.000000     12.000000
  0.181818  0.090909  0.000000     24.000000
  0.272727  0.090909  0.000000     24.000000
  0.363636  0.090909  0.000000     24.000000
  0.454545  0.090909  0.000000     24.000000
  0.181818  0.181818  0.000000     12.000000
  0.272727  0.181818  0.000000     24.000000
  0.363636  0.181818  0.000000     24.000000
  0.454545  0.181818  0.000000     24.000000
  0.272727  0.272727  0.000000     12.000000
  0.363636  0.272727  0.000000     24.000000
  0.454545  0.272727  0.000000     24.000000
  0.363636  0.363636  0.000000     12.000000
  0.454545  0.363636  0.000000     24.000000
  0.454545  0.454545  0.000000     12.000000
  0.090909  0.090909  0.090909      8.000000
  0.181818  0.090909  0.090909     24.000000
  0.272727  0.090909  0.090909     24.000000
  0.363636  0.090909  0.090909     24.000000
  0.454545  0.090909  0.090909     24.000000
  0.181818  0.181818  0.090909     24.000000
  0.272727  0.181818  0.090909     48.000000
  0.363636  0.181818  0.090909     48.000000
  0.454545  0.181818  0.090909     48.000000
  0.272727  0.272727  0.090909     24.000000
  0.363636  0.272727  0.090909     48.000000
  0.454545  0.272727  0.090909     48.000000
  0.363636  0.363636  0.090909     24.000000
  0.454545  0.363636  0.090909     48.000000
  0.454545  0.454545  0.090909     24.000000
  0.181818  0.181818  0.181818      8.000000
  0.272727  0.181818  0.181818     24.000000
  0.363636  0.181818  0.181818     24.000000
  0.454545  0.181818  0.181818     24.000000
  0.272727  0.272727  0.181818     24.000000
  0.363636  0.272727  0.181818     48.000000
  0.454545  0.272727  0.181818     48.000000
  0.363636  0.363636  0.181818     24.000000
  0.454545  0.363636  0.181818     48.000000
  0.454545  0.454545  0.181818     24.000000
  0.272727  0.272727  0.272727      8.000000
  0.363636  0.272727  0.272727     24.000000
  0.454545  0.272727  0.272727     24.000000
  0.363636  0.363636  0.272727     24.000000
  0.454545  0.363636  0.272727     48.000000
  0.454545  0.454545  0.272727     24.000000
  0.363636  0.363636  0.363636      8.000000
  0.454545  0.363636  0.363636     24.000000
  0.454545  0.454545  0.363636     24.000000
  0.454545  0.454545  0.454545      8.000000
 
 Following cartesian coordinates:
            Coordinates               Weight
  0.000000  0.000000  0.000000      1.000000
  0.090909  0.000000  0.000000      6.000000
  0.181818  0.000000  0.000000      6.000000
  0.272727  0.000000  0.000000      6.000000
  0.363636  0.000000  0.000000      6.000000
  0.454545  0.000000  0.000000      6.000000
  0.090909  0.090909  0.000000     12.000000
  0.181818  0.090909  0.000000     24.000000
  0.272727  0.090909  0.000000     24.000000
  0.363636  0.090909  0.000000     24.000000
  0.454545  0.090909  0.000000     24.000000
  0.181818  0.181818  0.000000     12.000000
  0.272727  0.181818  0.000000     24.000000
  0.363636  0.181818  0.000000     24.000000
  0.454545  0.181818  0.000000     24.000000
  0.272727  0.272727  0.000000     12.000000
  0.363636  0.272727  0.000000     24.000000
  0.454545  0.272727  0.000000     24.000000
  0.363636  0.363636  0.000000     12.000000
  0.454545  0.363636  0.000000     24.000000
  0.454545  0.454545  0.000000     12.000000
  0.090909  0.090909  0.090909      8.000000
  0.181818  0.090909  0.090909     24.000000
  0.272727  0.090909  0.090909     24.000000
  0.363636  0.090909  0.090909     24.000000
  0.454545  0.090909  0.090909     24.000000
  0.181818  0.181818  0.090909     24.000000
  0.272727  0.181818  0.090909     48.000000
  0.363636  0.181818  0.090909     48.000000
  0.454545  0.181818  0.090909     48.000000
  0.272727  0.272727  0.090909     24.000000
  0.363636  0.272727  0.090909     48.000000
  0.454545  0.272727  0.090909     48.000000
  0.363636  0.363636  0.090909     24.000000
  0.454545  0.363636  0.090909     48.000000
  0.454545  0.454545  0.090909     24.000000
  0.181818  0.181818  0.181818      8.000000
  0.272727  0.181818  0.181818     24.000000
  0.363636  0.181818  0.181818     24.000000
  0.454545  0.181818  0.181818     24.000000
  0.272727  0.272727  0.181818     24.000000
  0.363636  0.272727  0.181818     48.000000
  0.454545  0.272727  0.181818     48.000000
  0.363636  0.363636  0.181818     24.000000
  0.454545  0.363636  0.181818     48.000000
  0.454545  0.454545  0.181818     24.000000
  0.272727  0.272727  0.272727      8.000000
  0.363636  0.272727  0.272727     24.000000
  0.454545  0.272727  0.272727     24.000000
  0.363636  0.363636  0.272727     24.000000
  0.454545  0.363636  0.272727     48.000000
  0.454545  0.454545  0.272727     24.000000
  0.363636  0.363636  0.363636      8.000000
  0.454545  0.363636  0.363636     24.000000
  0.454545  0.454545  0.363636     24.000000
  0.454545  0.454545  0.454545      8.000000
 


--------------------------------------------------------------------------------------------------------




 Dimension of arrays:
   k-points           NKPTS =     56   k-points in BZ     NKDIM =     56   number of bands    NBANDS=     25
   number of dos      NEDOS =    301   number of ions     NIONS =      8
   non local maximal  LDIM  =      4   non local SUM 2l+1 LMDIM =      8
   total plane-waves  NPLWV = 110592
   max r-space proj   IRMAX =      1   max aug-charges    IRDMAX=  23279
   dimension x,y,z NGX =    48 NGY =   48 NGZ =   48
   dimension x,y,z NGXF=    96 NGYF=   96 NGZF=   96
   support grid    NGXF=    96 NGYF=   96 NGZF=   96
   ions per type =               8
 NGX,Y,Z   is equivalent  to a cutoff of  14.69, 14.69, 14.69 a.u.
 NGXF,Y,Z  is equivalent  to a cutoff of  29.39, 29.39, 29.39 a.u.


 I would recommend the setting:
   dimension x,y,z NGX =    43 NGY =   43 NGZ =   43
 SYSTEM =  diamond Si                              
 POSCAR =  Si dia                                  

 Startparameter for this run:
   NWRITE =      2    write-flag & timer
   PREC   = accura    normal or accurate (medium, high low for compatibility)
   ISTART =      0    job   : 0-new  1-cont  2-samecut
   ICHARG =      2    charge: 1-file 2-atom 10-const
   ISPIN  =      1    spin polarized calculation?
   LNONCOLLINEAR =      F non collinear calculations
   LSORBIT =      F    spin-orbit coupling
   INIWAV =      1    electr: 0-lowe 1-rand  2-diag
   LASPH  =      F    aspherical Exc in radial PAW
   METAGGA=      F    non-selfconsistent MetaGGA calc.

 Electronic Relaxation 1
   ENCUT  =  600.0 eV  44.10 Ry    6.64 a.u.  10.85 10.85 10.85*2*pi/ulx,y,z
   ENINI  =  600.0     initial cutoff
   ENAUG  =  322.1 eV  augmentation charge cutoff
   NELM   =     60;   NELMIN=  0; NELMDL=  3     # of ELM steps 
   EDIFF  = 0.1E-03   stopping-criterion for ELM
   LREAL  =      F    real-space projection
   NLSPLINE    = F    spline interpolate recip. space projectors
   LCOMPAT=      F    compatible to vasp.4.4
   GGA_COMPAT  = T    GGA compatible to vasp.4.4-vasp.4.6
   LMAXPAW     = -100 max onsite density
   LMAXMIX     =    2 max onsite mixed and CHGCAR
   VOSKOWN=      0    Vosko Wilk Nusair interpolation
   ROPT   =    0.00000
 Ionic relaxation
   EDIFFG = -.1E-01   stopping-criterion for IOM
   NSW    =      9    number of steps for IOM
   NBLOCK =      1;   KBLOCK =      9    inner block; outer block 
   IBRION =      2    ionic relax: 0-MD 1-quasi-New 2-CG
   NFREE  =      1    steps in history (QN), initial steepest desc. (CG)
   ISIF   =      3    stress and relaxation
   IWAVPR =     11    prediction:  0-non 1-charg 2-wave 3-comb
   ISYM   =      2    0-nonsym 1-usesym 2-fastsym
   LCORR  =      T    Harris-Foulkes like correction to forces

   POTIM  = 1.0000    time-step for ionic-motion
   TEIN   =    0.0    initial temperature
   TEBEG  =    0.0;   TEEND  =   0.0 temperature during run
   SMASS  =  -3.00    Nose mass-parameter (am)
   estimated Nose-frequenzy (Omega)   =  0.10E-29 period in steps =****** mass=  -0.674E-27a.u.
   SCALEE = 1.0000    scale energy and forces
   NPACO  =    256;   APACO  = 16.0  distance and # of slots for P.C.
   PSTRESS=    0.0 pullay stress

  Mass of Ions in am
   POMASS =  28.09
  Ionic Valenz
   ZVAL   =   4.00
  Atomic Wigner-Seitz radii
   RWIGS  =  -1.00
  virtual crystal weights 
   VCA    =   1.00
   NELECT =      32.0000    total number of electrons
   NUPDOWN=      -1.0000    fix difference up-down

 DOS related values:
   EMIN   =  10.00;   EMAX   =-10.00  energy-range for DOS
   EFERMI =   0.00
   ISMEAR =     0;   SIGMA  =   0.10  broadening in eV -4-tet -1-fermi 0-gaus

 Electronic relaxation 2 (details)
   IALGO  =     38    algorithm
   LDIAG  =      T    sub-space diagonalisation (order eigenvalues)
   LSUBROT=      F    optimize rotation matrix (better conditioning)
   TURBO    =      0    0=normal 1=particle mesh
   IRESTART =      0    0=no restart 2=restart with 2 vectors
   NREBOOT  =      0    no. of reboots
   NMIN     =      0    reboot dimension
   EREF     =   0.00    reference energy to select bands
   IMIX   =      4    mixing-type and parameters
     AMIX     =   0.40;   BMIX     =  1.00
     AMIX_MAG =   1.60;   BMIX_MAG =  1.00
     AMIN     =   0.10
     WC   =   100.;   INIMIX=   1;  MIXPRE=   1;  MAXMIX= -45

 Intra band minimization:
   WEIMIN = 0.0010     energy-eigenvalue tresh-hold
   EBREAK =  0.10E-05  absolut break condition
   DEPER  =   0.30     relativ break condition  

   TIME   =   0.40     timestep for ELM

  volume/ion in A,a.u.               =      20.02       135.13
  Fermi-wavevector in a.u.,A,eV,Ry     =   0.956999  1.808467 12.460868  0.915848
  Thomas-Fermi vector in A             =   2.085978
 
 Write flags
   LWAVE  =      T    write WAVECAR
   LCHARG =      T    write CHGCAR
   LVTOT  =      F    write LOCPOT, total local potential
   LVHAR  =      F    write LOCPOT, Hartree potential only
   LELF   =      F    write electronic localiz. function (ELF)
   LORBIT =      0    0 simple, 1 ext, 2 COOP (PROOUT)


 Dipole corrections
   LMONO  =      F    monopole corrections only (constant potential shift)
   LDIPOL =      F    correct potential (dipole corrections)
   IDIPOL =      0    1-x, 2-y, 3-z, 4-all directions 
   EPSILON=  1.0000000 bulk dielectric constant

 Exchange correlation treatment:
   GGA     =    --    GGA type
   LEXCH   =     8    internal setting for exchange type
   VOSKOWN=      0    Vosko Wilk Nusair interpolation
   LHFCALC =     F    Hartree Fock is set to
   LHFONE  =     F    Hartree Fock one center treatment
   AEXX    =    0.0000 exact exchange contribution

 Linear response parameters
   LEPSILON=     F    determine dielectric tensor
   LRPA    =     F    only Hartree local field effects (RPA)
   LNABLA  =     F    use nabla operator in PAW spheres
   LVEL    =     F    velocity operator in full k-point grid
   LINTERFAST=   F  fast interpolation
   KINTER  =     0    interpolate to denser k-point grid
   CSHIFT  =0.1000    complex shift for real part using Kramers Kronig
   OMEGAMAX=  -1.0    maximum frequency
   DEG_THRESHOLD= 0.2000000E-02 threshold for treating states as degnerate
   RTIME   =    0.100 relaxation time in fs

 Orbital magnetization related:
   ORBITALMAG=     F  switch on orbital magnetization
   LCHIMAG   =     F  perturbation theory with respect to B field
   DQ        =  0.001000  dq finite difference perturbation B field



--------------------------------------------------------------------------------------------------------


 conjugate gradient relaxation of ions
 charge density and potential will be updated during run
 non-spin polarized calculation
 Variant of blocked Davidson
 Davidson routine will perform the subspace rotation
 perform sub-space diagonalisation
    after iterative eigenvector-optimisation
 modified Broyden-mixing scheme, WC =      100.0
 initial mixing is a Kerker type mixing with AMIX =  0.4000 and BMIX =      1.0000
 Hartree-type preconditioning will be used
 using additional bands            9
 reciprocal scheme for non local part
 use partial core corrections
 calculate Harris-corrections to forces 
   (improved forces if not selfconsistent)
 use gradient corrections 
 use of overlap-Matrix (Vanderbilt PP)
 Gauss-broadening in eV      SIGMA  =   0.10


--------------------------------------------------------------------------------------------------------


  energy-cutoff  :      600.00
  volume of cell :      160.19
      direct lattice vectors                 reciprocal lattice vectors
     5.431000000  0.000000000  0.000000000     0.184128153  0.000000000  0.000000000
     0.000000000  5.431000000  0.000000000     0.000000000  0.184128153  0.000000000
     0.000000000  0.000000000  5.431000000     0.000000000  0.000000000  0.184128153

  length of vectors
     5.431000000  5.431000000  5.431000000     0.184128153  0.184128153  0.184128153


 
 k-points in units of 2pi/SCALE and weight: k-points                                
   0.00000000  0.00000000  0.00000000       0.001
   0.09090909  0.00000000  0.00000000       0.005
   0.18181818  0.00000000  0.00000000       0.005
   0.27272727  0.00000000  0.00000000       0.005
   0.36363636  0.00000000  0.00000000       0.005
   0.45454545  0.00000000  0.00000000       0.005
   0.09090909  0.09090909  0.00000000       0.009
   0.18181818  0.09090909  0.00000000       0.018
   0.27272727  0.09090909  0.00000000       0.018
   0.36363636  0.09090909  0.00000000       0.018
   0.45454545  0.09090909  0.00000000       0.018
   0.18181818  0.18181818  0.00000000       0.009
   0.27272727  0.18181818  0.00000000       0.018
   0.36363636  0.18181818  0.00000000       0.018
   0.45454545  0.18181818  0.00000000       0.018
   0.27272727  0.27272727  0.00000000       0.009
   0.36363636  0.27272727  0.00000000       0.018
   0.45454545  0.27272727  0.00000000       0.018
   0.36363636  0.36363636  0.00000000       0.009
   0.45454545  0.36363636  0.00000000       0.018
   0.45454545  0.45454545  0.00000000       0.009
   0.09090909  0.09090909  0.09090909       0.006
   0.18181818  0.09090909  0.09090909       0.018
   0.27272727  0.09090909  0.09090909       0.018
   0.36363636  0.09090909  0.09090909       0.018
   0.45454545  0.09090909  0.09090909       0.018
   0.18181818  0.18181818  0.09090909       0.018
   0.27272727  0.18181818  0.09090909       0.036
   0.36363636  0.18181818  0.09090909       0.036
   0.45454545  0.18181818  0.09090909       0.036
   0.27272727  0.27272727  0.09090909       0.018
   0.36363636  0.27272727  0.09090909       0.036
   0.45454545  0.27272727  0.09090909       0.036
   0.36363636  0.36363636  0.09090909       0.018
   0.45454545  0.36363636  0.09090909       0.036
   0.45454545  0.45454545  0.09090909       0.018
   0.18181818  0.18181818  0.18181818       0.006
   0.27272727  0.18181818  0.18181818       0.018
   0.36363636  0.18181818  0.18181818       0.018
   0.45454545  0.18181818  0.18181818       0.018
   0.27272727  0.27272727  0.18181818       0.018
   0.36363636  0.27272727  0.18181818       0.036
   0.45454545  0.27272727  0.18181818       0.036
   0.36363636  0.36363636  0.18181818       0.018
   0.45454545  0.36363636  0.18181818       0.036
   0.45454545  0.45454545  0.18181818       0.018
   0.27272727  0.27272727  0.27272727       0.006
   0.36363636  0.27272727  0.27272727       0.018
   0.45454545  0.27272727  0.27272727       0.018
   0.36363636  0.36363636  0.27272727       0.018
   0.45454545  0.36363636  0.27272727       0.036
   0.45454545  0.45454545  0.27272727       0.018
   0.36363636  0.36363636  0.36363636       0.006
   0.45454545  0.36363636  0.36363636       0.018
   0.45454545  0.45454545  0.36363636       0.018
   0.45454545  0.45454545  0.45454545       0.006
 
 k-points in reciprocal lattice and weights: k-points                                
   0.00000000  0.00000000  0.00000000       0.001
   0.09090909  0.00000000  0.00000000       0.005
   0.18181818  0.00000000  0.00000000       0.005
   0.27272727  0.00000000  0.00000000       0.005
   0.36363636  0.00000000  0.00000000       0.005
   0.45454545  0.00000000  0.00000000       0.005
   0.09090909  0.09090909  0.00000000       0.009
   0.18181818  0.09090909  0.00000000       0.018
   0.27272727  0.09090909  0.00000000       0.018
   0.36363636  0.09090909  0.00000000       0.018
   0.45454545  0.09090909  0.00000000       0.018
   0.18181818  0.18181818  0.00000000       0.009
   0.27272727  0.18181818  0.00000000       0.018
   0.36363636  0.18181818  0.00000000       0.018
   0.45454545  0.18181818  0.00000000       0.018
   0.27272727  0.27272727  0.00000000       0.009
   0.36363636  0.27272727  0.00000000       0.018
   0.45454545  0.27272727  0.00000000       0.018
   0.36363636  0.36363636  0.00000000       0.009
   0.45454545  0.36363636  0.00000000       0.018
   0.45454545  0.45454545  0.00000000       0.009
   0.09090909  0.09090909  0.09090909       0.006
   0.18181818  0.09090909  0.09090909       0.018
   0.27272727  0.09090909  0.09090909       0.018
   0.36363636  0.09090909  0.09090909       0.018
   0.45454545  0.09090909  0.09090909       0.018
   0.18181818  0.18181818  0.09090909       0.018
   0.27272727  0.18181818  0.09090909       0.036
   0.36363636  0.18181818  0.09090909       0.036
   0.45454545  0.18181818  0.09090909       0.036
   0.27272727  0.27272727  0.09090909       0.018
   0.36363636  0.27272727  0.09090909       0.036
   0.45454545  0.27272727  0.09090909       0.036
   0.36363636  0.36363636  0.09090909       0.018
   0.45454545  0.36363636  0.09090909       0.036
   0.45454545  0.45454545  0.09090909       0.018
   0.18181818  0.18181818  0.18181818       0.006
   0.27272727  0.18181818  0.18181818       0.018
   0.36363636  0.18181818  0.18181818       0.018
   0.45454545  0.18181818  0.18181818       0.018
   0.27272727  0.27272727  0.18181818       0.018
   0.36363636  0.27272727  0.18181818       0.036
   0.45454545  0.27272727  0.18181818       0.036
   0.36363636  0.36363636  0.18181818       0.018
   0.45454545  0.36363636  0.18181818       0.036
   0.45454545  0.45454545  0.18181818       0.018
   0.27272727  0.27272727  0.27272727       0.006
   0.36363636  0.27272727  0.27272727       0.018
   0.45454545  0.27272727  0.27272727       0.018
   0.36363636  0.36363636  0.27272727       0.018
   0.45454545  0.36363636  0.27272727       0.036
   0.45454545  0.45454545  0.27272727       0.018
   0.36363636  0.36363636  0.36363636       0.006
   0.45454545  0.36363636  0.36363636       0.018
   0.45454545  0.45454545  0.36363636       0.018
   0.45454545  0.45454545  0.45454545       0.006
 
 position of ions in fractional coordinates (direct lattice) 
   0.00000000  0.00000000  0.00000000
   0.00000000  0.50000000  0.50000000
   0.50000000  0.00000000  0.50000000
   0.50000000  0.50000000  0.00000000
   0.25000000  0.25000000  0.25000000
   0.75000000  0.75000000  0.25000000
   0.75000000  0.25000000  0.75000000
   0.25000000  0.75000000  0.75000000
 
 position of ions in cartesian coordinates  (Angst):
   0.00000000  0.00000000  0.00000000
   0.00000000  2.71550000  2.71550000
   2.71550000  0.00000000  2.71550000
   2.71550000  2.71550000  0.00000000
   1.35775000  1.35775000  1.35775000
   4.07325000  4.07325000  1.35775000
   4.07325000  1.35775000  4.07325000
   1.35775000  4.07325000  4.07325000
 


--------------------------------------------------------------------------------------------------------


 k-point  1 :   0.0000 0.0000 0.0000  plane waves:    5377
 k-point  2 :   0.0909 0.0000 0.0000  plane waves:    5361
 k-point  3 :   0.1818 0.0000 0.0000  plane waves:    5338
 k-point  4 :   0.2727 0.0000 0.0000  plane waves:    5314
 k-point  5 :   0.3636 0.0000 0.0000  plane waves:    5334
 k-point  6 :   0.4545 0.0000 0.0000  plane waves:    5338
 k-point  7 :   0.0909 0.0909 0.0000  plane waves:    5347
 k-point  8 :   0.1818 0.0909 0.0000  plane waves:    5342
 k-point  9 :   0.2727 0.0909 0.0000  plane waves:    5333
 k-point 10 :   0.3636 0.0909 0.0000  plane waves:    5335
 k-point 11 :   0.4545 0.0909 0.0000  plane waves:    5346
 k-point 12 :   0.1818 0.1818 0.0000  plane waves:    5337
 k-point 13 :   0.2727 0.1818 0.0000  plane waves:    5340
 k-point 14 :   0.3636 0.1818 0.0000  plane waves:    5353
 k-point 15 :   0.4545 0.1818 0.0000  plane waves:    5347
 k-point 16 :   0.2727 0.2727 0.0000  plane waves:    5357
 k-point 17 :   0.3636 0.2727 0.0000  plane waves:    5335
 k-point 18 :   0.4545 0.2727 0.0000  plane waves:    5350
 k-point 19 :   0.3636 0.3636 0.0000  plane waves:    5338
 k-point 20 :   0.4545 0.3636 0.0000  plane waves:    5342
 k-point 21 :   0.4545 0.4545 0.0000  plane waves:    5332
 k-point 22 :   0.0909 0.0909 0.0909  plane waves:    5350
 k-point 23 :   0.1818 0.0909 0.0909  plane waves:    5342
 k-point 24 :   0.2727 0.0909 0.0909  plane waves:    5348
 k-point 25 :   0.3636 0.0909 0.0909  plane waves:    5337
 k-point 26 :   0.4545 0.0909 0.0909  plane waves:    5335
 k-point 27 :   0.1818 0.1818 0.0909  plane waves:    5341
 k-point 28 :   0.2727 0.1818 0.0909  plane waves:    5337
 k-point 29 :   0.3636 0.1818 0.0909  plane waves:    5350
 k-point 30 :   0.4545 0.1818 0.0909  plane waves:    5335
 k-point 31 :   0.2727 0.2727 0.0909  plane waves:    5348
 k-point 32 :   0.3636 0.2727 0.0909  plane waves:    5347
 k-point 33 :   0.4545 0.2727 0.0909  plane waves:    5347
 k-point 34 :   0.3636 0.3636 0.0909  plane waves:    5354
 k-point 35 :   0.4545 0.3636 0.0909  plane waves:    5345
 k-point 36 :   0.4545 0.4545 0.0909  plane waves:    5341
 k-point 37 :   0.1818 0.1818 0.1818  plane waves:    5332
 k-point 38 :   0.2727 0.1818 0.1818  plane waves:    5340
 k-point 39 :   0.3636 0.1818 0.1818  plane waves:    5337
 k-point 40 :   0.4545 0.1818 0.1818  plane waves:    5347
 k-point 41 :   0.2727 0.2727 0.1818  plane waves:    5359
 k-point 42 :   0.3636 0.2727 0.1818  plane waves:    5344
 k-point 43 :   0.4545 0.2727 0.1818  plane waves:    5346
 k-point 44 :   0.3636 0.3636 0.1818  plane waves:    5343
 k-point 45 :   0.4545 0.3636 0.1818  plane waves:    5352
 k-point 46 :   0.4545 0.4545 0.1818  plane waves:    5355
 k-point 47 :   0.2727 0.2727 0.2727  plane waves:    5340
 k-point 48 :   0.3636 0.2727 0.2727  plane waves:    5348
 k-point 49 :   0.4545 0.2727 0.2727  plane waves:    5358
 k-point 50 :   0.3636 0.3636 0.2727  plane waves:    5355
 k-point 51 :   0.4545 0.3636 0.2727  plane waves:    5356
 k-point 52 :   0.4545 0.4545 0.2727  plane waves:    5347
 k-point 53 :   0.3636 0.3636 0.3636  plane waves:    5355
 k-point 54 :   0.4545 0.3636 0.3636  plane waves:    5360
 k-point 55 :   0.4545 0.4545 0.3636  plane waves:    5381
 k-point 56 :   0.4545 0.4545 0.4545  plane waves:    5379

 maximum and minimum number of plane-waves per node :       698      648

 maximum number of plane-waves:      5381
 maximum index in each direction: 
   IXMAX=   10   IYMAX=   10   IZMAX=   10
   IXMIN=  -11   IYMIN=  -11   IZMIN=  -11

 NGX is ok and might be reduce to  44
 NGY is ok and might be reduce to  44
 NGZ is ok and might be reduce to  44

 total amount of memory used by VASP on root node    38589. kBytes
========================================================================

   base      :      30000. kBytes
   nonl-proj :       2598. kBytes
   fftplans  :       1171. kBytes
   grid      :       1637. kBytes
   one-center:          3. kBytes
   wavefun   :       3180. kBytes
 
     INWAV:  cpu time    0.0000: real time    0.0000
 Broyden mixing: mesh for mixing (old mesh)
   NGX = 21   NGY = 21   NGZ = 21
  (NGX  = 96   NGY  = 96   NGZ  = 96)
  gives a total of   9261 points

 initial charge density was supplied:
 charge density of overlapping atoms calculated
 number of electron      32.0000000 magnetization 
 keeping initial charge density in first step


--------------------------------------------------------------------------------------------------------


 Maximum index for augmentation-charges          585 (set IRDMAX)


--------------------------------------------------------------------------------------------------------


 First call to EWALD:  gamma=   0.326
 Maximum number of real-space cells 3x 3x 3
 Maximum number of reciprocal cells 3x 3x 3

 FEWALD executed in parallel
    FEWALD:  cpu time    0.0012: real time    0.0012


----------------------------------------- Iteration    1(   1)  ---------------------------------------


    POTLOK:  cpu time    0.0140: real time    0.0143
    SETDIJ:  cpu time    0.0020: real time    0.0022
     EDDAV:  cpu time    1.0833: real time    1.0895
       DOS:  cpu time    0.0010: real time    0.0010
    --------------------------------------------
      LOOP:  cpu time    1.1018: real time    1.1095

 eigenvalue-minimisations  :  2800
 total energy-change (2. order) : 0.7342646E+02  (-0.1342867E+04)
 number of electron      32.0000000 magnetization 
 augmentation part       32.0000000 magnetization 

 Free energy of the ion-electron system (eV)
  ---------------------------------------------------
  alpha Z        PSCENC =        13.44915721
  Ewald energy   TEWEN  =      -914.08579262
  -Hartree energ DENC   =       -44.03749844
  -exchange      EXHF   =         0.00000000
  -V(xc)+E(xc)   XCENC  =       -74.41615803
  PAW double counting   =       704.99039692     -564.24414232
  entropy T*S    EENTRO =        -0.00682473
  eigenvalues    EBANDS =       127.24484954
  atomic energy  EATOM  =       824.53247641
  Solvation  Ediel_sol  =         0.00000000
  ---------------------------------------------------
  free energy    TOTEN  =        73.42646394 eV

  energy without entropy =       73.43328867  energy(sigma->0) =       73.42987630


--------------------------------------------------------------------------------------------------------




----------------------------------------- Iteration    1(   2)  ---------------------------------------


     EDDAV:  cpu time    1.0111: real time    1.0153
       DOS:  cpu time    0.0010: real time    0.0010
    --------------------------------------------
      LOOP:  cpu time    1.0129: real time    1.0281

 eigenvalue-minimisations  :  3565
 total energy-change (2. order) :-0.1123031E+03  (-0.1084074E+03)
 number of electron      32.0000000 magnetization 
 augmentation part       32.0000000 magnetization 

 Free energy of the ion-electron system (eV)
  ---------------------------------------------------
  alpha Z        PSCENC =        13.44915721
  Ewald energy   TEWEN  =      -914.08579262
  -Hartree energ DENC   =       -44.03749844
  -exchange      EXHF   =         0.00000000
  -V(xc)+E(xc)   XCENC  =       -74.41615803
  PAW double counting   =       704.99039692     -564.24414232
  entropy T*S    EENTRO =        -0.00004504
  eigenvalues    EBANDS =        14.93497769
  atomic energy  EATOM  =       824.53247641
  Solvation  Ediel_sol  =         0.00000000
  ---------------------------------------------------
  free energy    TOTEN  =       -38.87662822 eV

  energy without entropy =      -38.87658318  energy(sigma->0) =      -38.87660570


--------------------------------------------------------------------------------------------------------




----------------------------------------- Iteration    1(   3)  ---------------------------------------


     EDDAV:  cpu time    1.0549: real time    1.0624
       DOS:  cpu time    0.0008: real time    0.0009
    CHARGE:  cpu time    0.0695: real time    0.0698
    MIXING:  cpu time    0.0014: real time    0.0015
    --------------------------------------------
      LOOP:  cpu time    1.1269: real time    1.1379

 eigenvalue-minimisations  :  3675
 total energy-change (2. order) :-0.5154925E+01  (-0.5110922E+01)
 number of electron      32.0000000 magnetization 
 augmentation part       -1.8755720 magnetization 

 Broyden mixing:
  rms(total) = 0.10466E+01    rms(broyden)= 0.10466E+01
  rms(prec ) = 0.14021E+01
  weight for this iteration     100.00

 Free energy of the ion-electron system (eV)
  ---------------------------------------------------
  alpha Z        PSCENC =        13.44915721
  Ewald energy   TEWEN  =      -914.08579262
  -Hartree energ DENC   =       -44.03749844
  -exchange      EXHF   =         0.00000000
  -V(xc)+E(xc)   XCENC  =       -74.41615803
  PAW double counting   =       704.99039692     -564.24414232
  entropy T*S    EENTRO =        -0.00000000
  eigenvalues    EBANDS =         9.78000726
  atomic energy  EATOM  =       824.53247641
  Solvation  Ediel_sol  =         0.00000000
  ---------------------------------------------------
  free energy    TOTEN  =       -44.03155361 eV

  energy without entropy =      -44.03155361  energy(sigma->0) =      -44.03155361


--------------------------------------------------------------------------------------------------------




----------------------------------------- Iteration    1(   4)  ---------------------------------------


    POTLOK:  cpu time    0.0118: real time    0.0119
    SETDIJ:  cpu time    0.0026: real time    0.0026
     EDDAV:  cpu time    1.0342: real time    1.0412
       DOS:  cpu time    0.0008: real time    0.0008
    CHARGE:  cpu time    0.0675: real time    0.0678
    MIXING:  cpu time    0.0012: real time    0.0012
    --------------------------------------------
      LOOP:  cpu time    1.1186: real time    1.1297

 eigenvalue-minimisations  :  3740
 total energy-change (2. order) : 0.4251829E+00  (-0.8157826E-01)
 number of electron      32.0000000 magnetization 
 augmentation part       -1.8591984 magnetization 

 Broyden mixing:
  rms(total) = 0.57959E+00    rms(broyden)= 0.57959E+00
  rms(prec ) = 0.80605E+00
  weight for this iteration     100.00

 eigenvalues of (default mixing * dielectric matrix)
  average eigenvalue GAMMA=   2.1928
  2.1928

 Free energy of the ion-electron system (eV)
  ---------------------------------------------------
  alpha Z        PSCENC =        13.44915721
  Ewald energy   TEWEN  =      -914.08579262
  -Hartree energ DENC   =       -49.91528689
  -exchange      EXHF   =         0.00000000
  -V(xc)+E(xc)   XCENC  =       -73.47471600
  PAW double counting   =      1621.32931907    -1481.02128042
  entropy T*S    EENTRO =        -0.00000000
  eigenvalues    EBANDS =        15.57975254
  atomic energy  EATOM  =       824.53247641
  Solvation  Ediel_sol  =         0.00000000
  ---------------------------------------------------
  free energy    TOTEN  =       -43.60637071 eV

  energy without entropy =      -43.60637071  energy(sigma->0) =      -43.60637071


--------------------------------------------------------------------------------------------------------




----------------------------------------- Iteration    1(   5)  ---------------------------------------


    POTLOK:  cpu time    0.0116: real time    0.0117
    SETDIJ:  cpu time    0.0017: real time    0.0017
     EDDAV:  cpu time    1.1089: real time    1.1354
       DOS:  cpu time    0.0009: real time    0.0009
    CHARGE:  cpu time    0.0818: real time    0.0824
    MIXING:  cpu time    0.0009: real time    0.0009
    --------------------------------------------
      LOOP:  cpu time    1.2063: real time    1.2362

 eigenvalue-minimisations  :  3405
 total energy-change (2. order) : 0.2341968E+00  (-0.4538485E-01)
 number of electron      32.0000000 magnetization 
 augmentation part       -1.8329848 magnetization 

 Broyden mixing:
  rms(total) = 0.52145E-01    rms(broyden)= 0.52145E-01
  rms(prec ) = 0.71657E-01
  weight for this iteration     100.00

 eigenvalues of (default mixing * dielectric matrix)
  average eigenvalue GAMMA=   1.7572
  1.0178  2.4965

 Free energy of the ion-electron system (eV)
  ---------------------------------------------------
  alpha Z        PSCENC =        13.44915721
  Ewald energy   TEWEN  =      -914.08579262
  -Hartree energ DENC   =       -59.17449769
  -exchange      EXHF   =         0.00000000
  -V(xc)+E(xc)   XCENC  =       -71.99197546
  PAW double counting   =      3396.42654943    -3256.66081276
  entropy T*S    EENTRO =        -0.00000021
  eigenvalues    EBANDS =        24.13272182
  atomic energy  EATOM  =       824.53247641
  Solvation  Ediel_sol  =         0.00000000
  ---------------------------------------------------
  free energy    TOTEN  =       -43.37217389 eV

  energy without entropy =      -43.37217367  energy(sigma->0) =      -43.37217378


--------------------------------------------------------------------------------------------------------




----------------------------------------- Iteration    1(   6)  ---------------------------------------


    POTLOK:  cpu time    0.0140: real time    0.0141
    SETDIJ:  cpu time    0.0017: real time    0.0017
     EDDAV:  cpu time    1.0551: real time    1.0579
       DOS:  cpu time    0.0009: real time    0.0009
    CHARGE:  cpu time    0.0689: real time    0.0691
    MIXING:  cpu time    0.0009: real time    0.0009
    --------------------------------------------
      LOOP:  cpu time    1.1420: real time    1.1479

 eigenvalue-minimisations  :  3680
 total energy-change (2. order) :-0.5730438E-02  (-0.1945769E-02)
 number of electron      32.0000000 magnetization 
 augmentation part       -1.8331570 magnetization 

 Broyden mixing:
  rms(total) = 0.24317E-01    rms(broyden)= 0.24317E-01
  rms(prec ) = 0.35699E-01
  weight for this iteration     100.00

 eigenvalues of (default mixing * dielectric matrix)
  average eigenvalue GAMMA=   2.0282
  0.8944  2.5593  2.6310

 Free energy of the ion-electron system (eV)
  ---------------------------------------------------
  alpha Z        PSCENC =        13.44915721
  Ewald energy   TEWEN  =      -914.08579262
  -Hartree energ DENC   =       -59.67190337
  -exchange      EXHF   =         0.00000000
  -V(xc)+E(xc)   XCENC  =       -71.89034402
  PAW double counting   =      3540.01586750    -3400.23046456
  entropy T*S    EENTRO =        -0.00000021
  eigenvalues    EBANDS =        24.50309933
  atomic energy  EATOM  =       824.53247641
  Solvation  Ediel_sol  =         0.00000000
  ---------------------------------------------------
  free energy    TOTEN  =       -43.37790433 eV

  energy without entropy =      -43.37790412  energy(sigma->0) =      -43.37790422


--------------------------------------------------------------------------------------------------------




----------------------------------------- Iteration    1(   7)  ---------------------------------------


    POTLOK:  cpu time    0.0118: real time    0.0119
    SETDIJ:  cpu time    0.0026: real time    0.0026
     EDDAV:  cpu time    1.0646: real time    1.0715
       DOS:  cpu time    0.0009: real time    0.0009
    CHARGE:  cpu time    0.0902: real time    0.0905
    MIXING:  cpu time    0.0009: real time    0.0009
    --------------------------------------------
      LOOP:  cpu time    1.1714: real time    1.1830

 eigenvalue-minimisations  :  3225
 total energy-change (2. order) :-0.2367727E-02  (-0.4739247E-03)
 number of electron      32.0000000 magnetization 
 augmentation part       -1.8357436 magnetization 

 Broyden mixing:
  rms(total) = 0.98614E-02    rms(broyden)= 0.98614E-02
  rms(prec ) = 0.12091E-01
  weight for this iteration     100.00

 eigenvalues of (default mixing * dielectric matrix)
  average eigenvalue GAMMA=   1.7390
  2.5828  2.4089  0.9822  0.9822

 Free energy of the ion-electron system (eV)
  ---------------------------------------------------
  alpha Z        PSCENC =        13.44915721
  Ewald energy   TEWEN  =      -914.08579262
  -Hartree energ DENC   =       -59.52662501
  -exchange      EXHF   =         0.00000000
  -V(xc)+E(xc)   XCENC  =       -71.88306469
  PAW double counting   =      3509.76965808    -3369.90533054
  entropy T*S    EENTRO =        -0.00000012
  eigenvalues    EBANDS =        24.26924923
  atomic energy  EATOM  =       824.53247641
  Solvation  Ediel_sol  =         0.00000000
  ---------------------------------------------------
  free energy    TOTEN  =       -43.38027205 eV

  energy without entropy =      -43.38027193  energy(sigma->0) =      -43.38027199


--------------------------------------------------------------------------------------------------------




----------------------------------------- Iteration    1(   8)  ---------------------------------------


    POTLOK:  cpu time    0.0124: real time    0.0130
    SETDIJ:  cpu time    0.0016: real time    0.0017
     EDDAV:  cpu time    0.9654: real time    0.9877
       DOS:  cpu time    0.0009: real time    0.0009
    --------------------------------------------
      LOOP:  cpu time    0.9807: real time    1.0185

 eigenvalue-minimisations  :  3060
 total energy-change (2. order) :-0.1646466E-04  (-0.1423460E-04)
 number of electron      32.0000000 magnetization 
 augmentation part       -1.8357436 magnetization 

 Free energy of the ion-electron system (eV)
  ---------------------------------------------------
  alpha Z        PSCENC =        13.44915721
  Ewald energy   TEWEN  =      -914.08579262
  -Hartree energ DENC   =       -59.63908484
  -exchange      EXHF   =         0.00000000
  -V(xc)+E(xc)   XCENC  =       -71.86966282
  PAW double counting   =      3503.96037641    -3364.10640178
  entropy T*S    EENTRO =        -0.00000013
  eigenvalues    EBANDS =        24.37864363
  atomic energy  EATOM  =       824.53247641
  Solvation  Ediel_sol  =         0.00000000
  ---------------------------------------------------
  free energy    TOTEN  =       -43.38028852 eV

  energy without entropy =      -43.38028839  energy(sigma->0) =      -43.38028845


--------------------------------------------------------------------------------------------------------




 average (electrostatic) potential at core
  the test charge radii are     0.9892
  (the norm of the test charge is              1.0000)
       1 -83.2556       2 -83.2556       3 -83.2556       4 -83.2556       5 -83.2556
       6 -83.2556       7 -83.2556       8 -83.2556
 
 
 
 E-fermi :   6.1055     XC(G=0):  -9.4112     alpha+bet :-11.9779


 k-point     1 :       0.0000    0.0000    0.0000
  band No.  band energies     occupation 
      1      -6.1339      2.00000
      2      -1.9901      2.00000
      3      -1.9901      2.00000
      4      -1.9901      2.00000
      5      -1.9901      2.00000
      6      -1.9901      2.00000
      7      -1.9901      2.00000
      8       2.9743      2.00000
      9       2.9743      2.00000
     10       2.9743      2.00000
     11       2.9743      2.00000
     12       2.9743      2.00000
     13       2.9743      2.00000
     14       5.8221      1.99994
     15       5.8221      1.99994
     16       5.8221      1.99994
     17       6.5326      0.00000
     18       6.5326      0.00000
     19       6.5326      0.00000
     20       6.5326      0.00000
     21       6.5326      0.00000
     22       6.5326      0.00000
     23       8.3890      0.00000
     24       8.3890      0.00000
     25       8.3890      0.00000

 k-point     2 :       0.0909    0.0000    0.0000
  band No.  band energies     occupation 
      1      -6.0977      2.00000
      2      -2.6708      2.00000
      3      -1.9782      2.00000
      4      -1.9782      2.00000
      5      -1.9782      2.00000
      6      -1.9782      2.00000
      7      -1.2663      2.00000
      8       2.8699      2.00000
      9       2.8699      2.00000
     10       2.8699      2.00000
     11       2.8699      2.00000
     12       3.0069      2.00000
     13       3.0069      2.00000
     14       5.5881      2.00000
     15       5.6751      2.00000
     16       5.6751      2.00000
     17       6.4187      0.00001
     18       6.7281      0.00000
     19       6.7281      0.00000
     20       6.7281      0.00000
     21       6.7281      0.00000
     22       6.7442      0.00000
     23       8.3011      0.00000
     24       8.5805      0.00000
     25       8.5805      0.00000

 k-point     3 :       0.1818    0.0000    0.0000
  band No.  band energies     occupation 
      1      -5.9893      2.00000
      2      -3.3020      2.00000
      3      -1.9454      2.00000
      4      -1.9454      2.00000
      5      -1.9454      2.00000
      6      -1.9454      2.00000
      7      -0.5070      2.00000
      8       2.6215      2.00000
      9       2.6215      2.00000
     10       2.6215      2.00000
     11       2.6215      2.00000
     12       3.1044      2.00000
     13       3.1044      2.00000
     14       5.0208      2.00000
     15       5.3276      2.00000
     16       5.3276      2.00000
     17       6.3973      0.00004
     18       7.0581      0.00000
     19       7.2517      0.00000
     20       7.2517      0.00000
     21       7.2517      0.00000
     22       7.2517      0.00000
     23       8.0680      0.00000
     24       9.0608      0.00000
     25       9.0608      0.00000

 k-point     4 :       0.2727    0.0000    0.0000
  band No.  band energies     occupation 
      1      -5.8093      2.00000
      2      -3.8783      2.00000
      3      -1.9005      2.00000
      4      -1.9005      2.00000
      5      -1.9005      2.00000
      6      -1.9005      2.00000
      7       0.2797      2.00000
      8       2.3425      2.00000
      9       2.3425      2.00000
     10       2.3425      2.00000
     11       2.3425      2.00000
     12       3.2660      2.00000
     13       3.2660      2.00000
     14       4.3026      2.00000
     15       4.9112      2.00000
     16       4.9112      2.00000
     17       6.4623      0.00000
     18       7.4771      0.00000
     19       7.7540      0.00000
     20       7.9946      0.00000
     21       7.9946      0.00000
     22       7.9946      0.00000
     23       7.9946      0.00000
     24       9.6965      0.00000
     25       9.6965      0.00000

 k-point     5 :       0.3636    0.0000    0.0000
  band No.  band energies     occupation 
      1      -5.5584      2.00000
      2      -4.3953      2.00000
      3      -1.8569      2.00000
      4      -1.8569      2.00000
      5      -1.8569      2.00000
      6      -1.8569      2.00000
      7       1.0849      2.00000
      8       2.1156      2.00000
      9       2.1156      2.00000
     10       2.1156      2.00000
     11       2.1156      2.00000
     12       3.4898      2.00000
     13       3.4898      2.00000
     14       3.5221      2.00000
     15       4.4952      2.00000
     16       4.4952      2.00000
     17       6.6070      0.00000
     18       7.4173      0.00000
     19       8.0003      0.00000
     20       8.8770      0.00000
     21       8.8770      0.00000
     22       8.8770      0.00000
     23       8.8770      0.00000
     24       9.9607      0.00000
     25      10.4152      0.00000

 k-point     6 :       0.4545    0.0000    0.0000
  band No.  band energies     occupation 
      1      -5.2378      2.00000
      2      -4.8494      2.00000
      3      -1.8300      2.00000
      4      -1.8300      2.00000
      5      -1.8300      2.00000
      6      -1.8300      2.00000
      7       1.8999      2.00000
      8       1.9902      2.00000
      9       1.9902      2.00000
     10       1.9902      2.00000
     11       1.9902      2.00000
     12       2.7157      2.00000
     13       3.7730      2.00000
     14       3.7730      2.00000
     15       4.1108      2.00000
     16       4.1108      2.00000
     17       6.8228      0.00000
     18       7.0984      0.00000
     19       8.6187      0.00000
     20       9.3034      0.00000
     21       9.8105      0.00000
     22       9.8105      0.00000
     23       9.8105      0.00000
     24       9.8105      0.00000
     25      11.1274      0.00000

 k-point     7 :       0.0909    0.0909    0.0000
  band No.  band energies     occupation 
      1      -6.0616      2.00000
      2      -2.6518      2.00000
      3      -2.6518      2.00000
      4      -2.0235      2.00000
      5      -1.9119      2.00000
      6      -1.2646      2.00000
      7      -1.2646      2.00000
      8       2.5624      2.00000
      9       2.8872      2.00000
     10       2.8872      2.00000
     11       2.9223      2.00000
     12       2.9223      2.00000
     13       3.0321      2.00000
     14       5.1918      2.00000
     15       5.5280      2.00000
     16       5.7896      1.99999
     17       6.5995      0.00000
     18       6.6229      0.00000
     19       6.6229      0.00000
     20       6.9292      0.00000
     21       6.9292      0.00000
     22       7.1867      0.00000
     23       8.4633      0.00000
     24       8.5264      0.00000
     25       8.6062      0.00000

 k-point     8 :       0.1818    0.0909    0.0000
  band No.  band energies     occupation 
      1      -5.9535      2.00000
      2      -3.2780      2.00000
      3      -2.5968      2.00000
      4      -2.0562      2.00000
      5      -1.8219      2.00000
      6      -1.2631      2.00000
      7      -0.5198      2.00000
      8       2.2234      2.00000
      9       2.6016      2.00000
     10       2.7233      2.00000
     11       2.9731      2.00000
     12       2.9858      2.00000
     13       3.0450      2.00000
     14       4.6161      2.00000
     15       5.1794      2.00000
     16       5.5868      2.00000
     17       6.6079      0.00000
     18       6.8601      0.00000
     19       7.1628      0.00000
     20       7.2308      0.00000
     21       7.4315      0.00000
     22       7.8686      0.00000
     23       8.2637      0.00000
     24       8.8768      0.00000
     25       8.9855      0.00000

 k-point     9 :       0.2727    0.0909    0.0000
  band No.  band energies     occupation 
      1      -5.7739      2.00000
      2      -3.8506      2.00000
      3      -2.5124      2.00000
      4      -2.0892      2.00000
      5      -1.7115      2.00000
      6      -1.2725      2.00000
      7       0.2456      2.00000
      8       1.9372      2.00000
      9       2.2724      2.00000
     10       2.5117      2.00000
     11       2.7961      2.00000
     12       3.1261      2.00000
     13       3.2385      2.00000
     14       3.9692      2.00000
     15       4.7614      2.00000
     16       5.1681      2.00000
     17       6.6773      0.00000
     18       7.4442      0.00000
     19       7.6363      0.00000
     20       7.9196      0.00000
     21       7.9576      0.00000
     22       8.1546      0.00000
     23       8.6980      0.00000
     24       9.3838      0.00000
     25       9.6297      0.00000

 k-point    10 :       0.3636    0.0909    0.0000
  band No.  band energies     occupation 
      1      -5.5237      2.00000
      2      -4.3650      2.00000
      3      -2.4094      2.00000
      4      -2.1368      2.00000
      5      -1.5899      2.00000
      6      -1.3060      2.00000
      7       1.0202      2.00000
      8       1.7543      2.00000
      9       1.9826      2.00000
     10       2.3655      2.00000
     11       2.5747      2.00000
     12       3.2763      2.00000
     13       3.3441      2.00000
     14       3.5029      2.00000
     15       4.3443      2.00000
     16       4.6917      2.00000
     17       6.8240      0.00000
     18       7.6275      0.00000
     19       8.1453      0.00000
     20       8.2411      0.00000
     21       8.8132      0.00000
     22       9.0182      0.00000
     23       9.6219      0.00000
     24       9.8539      0.00000
     25      10.3714      0.00000

 k-point    11 :       0.4545    0.0909    0.0000
  band No.  band energies     occupation 
      1      -5.2042      2.00000
      2      -4.8172      2.00000
      3      -2.3028      2.00000
      4      -2.2082      2.00000
      5      -1.4715      2.00000
      6      -1.3728      2.00000
      7       1.7010      2.00000
      8       1.7820      2.00000
      9       1.7915      2.00000
     10       2.3261      2.00000
     11       2.4024      2.00000
     12       2.5473      2.00000
     13       3.6237      2.00000
     14       3.8371      2.00000
     15       3.9599      2.00000
     16       4.2373      2.00000
     17       7.0397      0.00000
     18       7.3130      0.00000
     19       8.7485      0.00000
     20       9.1609      0.00000
     21       9.4096      0.00000
     22       9.7841      0.00000
     23       9.8126      0.00000
     24      10.4347      0.00000
     25      10.5205      0.00000

 k-point    12 :       0.1818    0.1818    0.0000
  band No.  band energies     occupation 
      1      -5.8463      2.00000
      2      -3.2072      2.00000
      3      -3.2072      2.00000
      4      -2.1668      2.00000
      5      -1.6776      2.00000
      6      -0.5624      2.00000
      7      -0.5624      2.00000
      8       1.8767      2.00000
      9       2.6602      2.00000
     10       2.6602      2.00000
     11       2.9105      2.00000
     12       2.9105      2.00000
     13       3.2031      2.00000
     14       4.0346      2.00000
     15       4.8277      2.00000
     16       5.6796      2.00000
     17       6.7974      0.00000
     18       7.1593      0.00000
     19       7.1593      0.00000
     20       7.7072      0.00000
     21       7.7072      0.00000
     22       8.6372      0.00000
     23       8.6858      0.00000
     24       8.7832      0.00000
     25       8.8553      0.00000

 k-point    13 :       0.2727    0.1818    0.0000
  band No.  band energies     occupation 
      1      -5.6681      2.00000
      2      -3.7687      2.00000
      3      -3.0944      2.00000
      4      -2.2907      2.00000
      5      -1.5101      2.00000
      6      -0.6437      2.00000
      7       0.1425      2.00000
      8       1.6331      2.00000
      9       2.2945      2.00000
     10       2.7857      2.00000
     11       2.7936      2.00000
     12       3.1859      2.00000
     13       3.2122      2.00000
     14       3.4238      2.00000
     15       4.4060      2.00000
     16       5.4443      2.00000
     17       7.1186      0.00000
     18       7.2352      0.00000
     19       7.9242      0.00000
     20       8.0828      0.00000
     21       8.4047      0.00000
     22       8.4711      0.00000
     23       9.0156      0.00000
     24       9.4512      0.00000
     25       9.5130      0.00000

 k-point    14 :       0.3636    0.1818    0.0000
  band No.  band energies     occupation 
      1      -5.4202      2.00000
      2      -4.2749      2.00000
      3      -2.9476      2.00000
      4      -2.4366      2.00000
      5      -1.3230      2.00000
      6      -0.7696      2.00000
      7       0.8377      2.00000
      8       1.5203      2.00000
      9       1.9584      2.00000
     10       2.7338      2.00000
     11       2.8012      2.00000
     12       2.9983      2.00000
     13       3.0774      2.00000
     14       3.5488      2.00000
     15       3.9865      2.00000
     16       5.0014      2.00000
     17       7.3836      0.00000
     18       7.7556      0.00000
     19       8.1616      0.00000
     20       8.5587      0.00000
     21       8.8225      0.00000
     22       9.2390      0.00000
     23       9.4624      0.00000
     24      10.2074      0.00000
     25      10.4477      0.00000

 k-point    15 :       0.4545    0.1818    0.0000
  band No.  band energies     occupation 
      1      -5.1038      2.00000
      2      -4.7211      2.00000
      3      -2.7787      2.00000
      4      -2.6031      2.00000
      5      -1.1262      2.00000
      6      -0.9354      2.00000
      7       1.5132      2.00000
      8       1.5454      2.00000
      9       1.6985      2.00000
     10       2.1663      2.00000
     11       2.7782      2.00000
     12       2.9069      2.00000
     13       3.2699      2.00000
     14       3.6023      2.00000
     15       3.9908      2.00000
     16       4.4897      2.00000
     17       7.5960      0.00000
     18       7.8609      0.00000
     19       8.5953      0.00000
     20       9.1242      0.00000
     21       9.5057      0.00000
     22       9.6782      0.00000
     23       9.8051      0.00000
     24      10.2811      0.00000
     25      10.3866      0.00000

 k-point    16 :       0.2727    0.2727    0.0000
  band No.  band energies     occupation 
      1      -5.4926      2.00000
      2      -3.6355      2.00000
      3      -3.6355      2.00000
      4      -2.5129      2.00000
      5      -1.2885      2.00000
      6      -0.0279      2.00000
      7      -0.0279      2.00000
      8       1.4590      2.00000
      9       2.4024      2.00000
     10       2.4024      2.00000
     11       2.8513      2.00000
     12       3.1643      2.00000
     13       3.1643      2.00000
     14       3.4791      2.00000
     15       3.9807      2.00000
     16       5.4657      2.00000
     17       7.1177      0.00000
     18       8.0026      0.00000
     19       8.0026      0.00000
     20       8.7493      0.00000
     21       8.7493      0.00000
     22       8.8837      0.00000
     23       9.0559      0.00000
     24       9.3046      0.00000
     25      10.4107      0.00000

 k-point    17 :       0.3636    0.2727    0.0000
  band No.  band energies     occupation 
      1      -5.2485      2.00000
      2      -4.1271      2.00000
      3      -3.4570      2.00000
      4      -2.7540      2.00000
      5      -1.0444      2.00000
      6      -0.2532      2.00000
      7       0.5678      2.00000
      8       1.4235      2.00000
      9       2.0333      2.00000
     10       2.2793      2.00000
     11       2.5897      2.00000
     12       3.2080      2.00000
     13       3.5373      2.00000
     14       3.5596      2.00000
     15       3.6357      2.00000
     16       5.1885      2.00000
     17       7.4908      0.00000
     18       8.1479      0.00000
     19       8.8749      0.00000
     20       8.8992      0.00000
     21       9.0454      0.00000
     22       9.1903      0.00000
     23       9.5282      0.00000
     24       9.9934      0.00000
     25      10.1385      0.00000

 k-point    18 :       0.4545    0.2727    0.0000
  band No.  band energies     occupation 
      1      -4.9377      2.00000
      2      -4.5627      2.00000
      3      -3.2418      2.00000
      4      -3.0023      2.00000
      5      -0.7820      2.00000
      6      -0.5122      2.00000
      7       1.1449      2.00000
      8       1.5192      2.00000
      9       1.7122      2.00000
     10       1.7297      2.00000
     11       2.8504      2.00000
     12       3.1771      2.00000
     13       3.3146      2.00000
     14       3.4482      2.00000
     15       4.1703      2.00000
     16       4.7157      2.00000
     17       8.1684      0.00000
     18       8.3513      0.00000
     19       8.6003      0.00000
     20       9.0332      0.00000
     21       9.4169      0.00000
     22       9.7025      0.00000
     23       9.8806      0.00000
     24       9.9586      0.00000
     25      10.3762      0.00000

 k-point    19 :       0.3636    0.3636    0.0000
  band No.  band energies     occupation 
      1      -5.0104      2.00000
      2      -3.9257      2.00000
      3      -3.9257      2.00000
      4      -3.0771      2.00000
      5      -0.7464      2.00000
      6       0.2473      2.00000
      7       0.2473      2.00000
      8       1.4581      2.00000
      9       1.7556      2.00000
     10       2.1979      2.00000
     11       2.1979      2.00000
     12       3.1394      2.00000
     13       3.7563      2.00000
     14       3.7563      2.00000
     15       3.8442      2.00000
     16       5.1372      2.00000
     17       7.5411      0.00000
     18       8.8170      0.00000
     19       9.0364      0.00000
     20       9.0364      0.00000
     21       9.5114      0.00000
     22       9.5115      0.00000
     23       9.5722      0.00000
     24       9.8711      0.00000
     25      10.0204      0.00000

 k-point    20 :       0.4545    0.3636    0.0000
  band No.  band energies     occupation 
      1      -4.7080      2.00000
      2      -4.3449      2.00000
      3      -3.6769      2.00000
      4      -3.3899      2.00000
      5      -0.4273      2.00000
      6      -0.0917      2.00000
      7       0.7425      2.00000
      8       1.2431      2.00000
      9       1.6104      2.00000
     10       1.8633      2.00000
     11       2.4436      2.00000
     12       2.7613      2.00000
     13       3.8790      2.00000
     14       3.9396      2.00000
     15       4.3225      2.00000
     16       4.8207      2.00000
     17       7.9502      0.00000
     18       8.6473      0.00000
     19       8.8549      0.00000
     20       9.1172      0.00000
     21       9.2241      0.00000
     22       9.4457      0.00000
     23      10.0060      0.00000
     24      10.4805      0.00000
     25      10.6389      0.00000

 k-point    21 :       0.4545    0.4545    0.0000
  band No.  band energies     occupation 
      1      -4.4179      2.00000
      2      -4.0720      2.00000
      3      -4.0720      2.00000
      4      -3.7506      2.00000
      5      -0.0546      2.00000
      6       0.3373      2.00000
      7       0.3373      2.00000
      8       0.7820      2.00000
      9       1.8048      2.00000
     10       2.0878      2.00000
     11       2.0878      2.00000
     12       2.3917      2.00000
     13       4.2718      2.00000
     14       4.3844      2.00000
     15       4.3844      2.00000
     16       4.7211      2.00000
     17       8.0288      0.00000
     18       8.4417      0.00000
     19       8.4417      0.00000
     20       8.5001      0.00000
     21      10.1680      0.00000
     22      10.1680      0.00000
     23      10.2320      0.00000
     24      10.5616      0.00000
     25      11.0435      0.00000

 k-point    22 :       0.0909    0.0909    0.0909
  band No.  band energies     occupation 
      1      -6.0256      2.00000
      2      -2.6358      2.00000
      3      -2.6358      2.00000
      4      -2.6358      2.00000
      5      -1.2632      2.00000
      6      -1.2632      2.00000
      7      -1.2632      2.00000
      8       2.6038      2.00000
      9       2.6038      2.00000
     10       2.6038      2.00000
     11       3.0644      2.00000
     12       3.0644      2.00000
     13       3.0644      2.00000
     14       4.8367      2.00000
     15       5.6546      2.00000
     16       5.6546      2.00000
     17       6.6142      0.00000
     18       6.6142      0.00000
     19       6.6142      0.00000
     20       7.2668      0.00000
     21       7.2668      0.00000
     22       7.2668      0.00000
     23       8.4195      0.00000
     24       8.6358      0.00000
     25       8.6358      0.00000

 k-point    23 :       0.1818    0.0909    0.0909
  band No.  band energies     occupation 
      1      -5.9178      2.00000
      2      -3.2554      2.00000
      3      -2.5908      2.00000
      4      -2.5908      2.00000
      5      -1.2616      2.00000
      6      -1.2616      2.00000
      7      -0.5364      2.00000
      8       2.2731      2.00000
      9       2.2731      2.00000
     10       2.7286      2.00000
     11       3.0225      2.00000
     12       3.0225      2.00000
     13       3.1608      2.00000
     14       4.2710      2.00000
     15       5.3286      2.00000
     16       5.5273      2.00000
     17       6.6695      0.00000
     18       6.8912      0.00000
     19       6.8912      0.00000
     20       7.4951      0.00000
     21       7.9285      0.00000
     22       7.9285      0.00000
     23       8.3615      0.00000
     24       8.6866      0.00000
     25       9.0734      0.00000

 k-point    24 :       0.2727    0.0909    0.0909
  band No.  band energies     occupation 
      1      -5.7387      2.00000
      2      -3.8238      2.00000
      3      -2.5272      2.00000
      4      -2.5272      2.00000
      5      -1.2650      2.00000
      6      -1.2650      2.00000
      7       0.2039      2.00000
      8       1.9911      2.00000
      9       1.9911      2.00000
     10       2.8478      2.00000
     11       2.8478      2.00000
     12       2.9382      2.00000
     13       3.3204      2.00000
     14       3.6590      2.00000
     15       4.9301      2.00000
     16       5.1161      2.00000
     17       6.7812      0.00000
     18       7.4781      0.00000
     19       7.4781      0.00000
     20       7.8532      0.00000
     21       8.1046      0.00000
     22       8.7493      0.00000
     23       8.7493      0.00000
     24       9.1335      0.00000
     25       9.6547      0.00000

 k-point    25 :       0.3636    0.0909    0.0909
  band No.  band energies     occupation 
      1      -5.4893      2.00000
      2      -4.3353      2.00000
      3      -2.4627      2.00000
      4      -2.4627      2.00000
      5      -1.2755      2.00000
      6      -1.2755      2.00000
      7       0.9425      2.00000
      8       1.7988      2.00000
      9       1.7988      2.00000
     10       2.6562      2.00000
     11       2.6562      2.00000
     12       3.0220      2.00000
     13       3.2342      2.00000
     14       3.5412      2.00000
     15       4.5270      2.00000
     16       4.5963      2.00000
     17       6.9548      0.00000
     18       7.7853      0.00000
     19       8.2743      0.00000
     20       8.2743      0.00000
     21       8.3281      0.00000
     22       9.6645      0.00000
     23       9.6645      0.00000
     24       9.7020      0.00000
     25      10.3098      0.00000

 k-point    26 :       0.4545    0.0909    0.0909
  band No.  band energies     occupation 
      1      -5.1709      2.00000
      2      -4.7854      2.00000
      3      -2.4209      2.00000
      4      -2.4209      2.00000
      5      -1.2860      2.00000
      6      -1.2860      2.00000
      7       1.6644      2.00000
      8       1.7058      2.00000
      9       1.7058      2.00000
     10       2.3586      2.00000
     11       2.5362      2.00000
     12       2.5362      2.00000
     13       3.6167      2.00000
     14       3.8200      2.00000
     15       4.0786      2.00000
     16       4.1515      2.00000
     17       7.1874      0.00000
     18       7.4698      0.00000
     19       8.9041      0.00000
     20       9.1892      0.00000
     21       9.1892      0.00000
     22       9.5299      0.00000
     23      10.1764      0.00000
     24      10.1765      0.00000
     25      10.7046      0.00000

 k-point    27 :       0.1818    0.1818    0.0909
  band No.  band energies     occupation 
      1      -5.8109      2.00000
      2      -3.1894      2.00000
      3      -3.1894      2.00000
      4      -2.5791      2.00000
      5      -1.2549      2.00000
      6      -0.5890      2.00000
      7      -0.5890      2.00000
      8       1.9463      2.00000
      9       2.4218      2.00000
     10       2.4218      2.00000
     11       3.1336      2.00000
     12       3.1336      2.00000
     13       3.2342      2.00000
     14       3.7096      2.00000
     15       5.0759      2.00000
     16       5.5768      2.00000
     17       6.8381      0.00000
     18       6.9839      0.00000
     19       6.9839      0.00000
     20       8.1083      0.00000
     21       8.1083      0.00000
     22       8.3958      0.00000
     23       8.6864      0.00000
     24       8.8029      0.00000
     25       9.0995      0.00000

 k-point    28 :       0.2727    0.1818    0.0909
  band No.  band energies     occupation 
      1      -5.6334      2.00000
      2      -3.7446      2.00000
      3      -3.0863      2.00000
      4      -2.5793      2.00000
      5      -1.2344      2.00000
      6      -0.6820      2.00000
      7       0.0807      2.00000
      8       1.7230      2.00000
      9       2.1477      2.00000
     10       2.6671      2.00000
     11       3.0071      2.00000
     12       3.1223      2.00000
     13       3.2468      2.00000
     14       3.3222      2.00000
     15       4.6699      2.00000
     16       5.3558      2.00000
     17       7.1360      0.00000
     18       7.1598      0.00000
     19       7.5784      0.00000
     20       8.4078      0.00000
     21       8.4164      0.00000
     22       8.8930      0.00000
     23       8.9044      0.00000
     24       9.5388      0.00000
     25       9.5571      0.00000

 k-point    29 :       0.3636    0.1818    0.0909
  band No.  band energies     occupation 
      1      -5.3863      2.00000
      2      -4.2468      2.00000
      3      -2.9573      2.00000
      4      -2.6147      2.00000
      5      -1.1834      2.00000
      6      -0.8110      2.00000
      7       0.7298      2.00000
      8       1.6239      2.00000
      9       1.9249      2.00000
     10       2.5354      2.00000
     11       2.8995      2.00000
     12       2.9981      2.00000
     13       3.1239      2.00000
     14       3.5955      2.00000
     15       4.2375      2.00000
     16       4.9166      2.00000
     17       7.3433      0.00000
     18       7.7939      0.00000
     19       8.1890      0.00000
     20       8.3723      0.00000
     21       8.8242      0.00000
     22       9.3379      0.00000
     23       9.7872      0.00000
     24      10.1518      0.00000
     25      10.4908      0.00000

 k-point    30 :       0.4545    0.1818    0.0909
  band No.  band energies     occupation 
      1      -5.0712      2.00000
      2      -4.6904      2.00000
      3      -2.8199      2.00000
      4      -2.6979      2.00000
      5      -1.0886      2.00000
      6      -0.9563      2.00000
      7       1.3508      2.00000
      8       1.6422      2.00000
      9       1.7521      2.00000
     10       1.9485      2.00000
     11       2.8864      2.00000
     12       2.9761      2.00000
     13       3.3887      2.00000
     14       3.8074      2.00000
     15       3.9627      2.00000
     16       4.4188      2.00000
     17       7.5985      0.00000
     18       7.8890      0.00000
     19       8.6299      0.00000
     20       9.2622      0.00000
     21       9.3423      0.00000
     22       9.6373      0.00000
     23       9.7796      0.00000
     24      10.2678      0.00000
     25      10.3148      0.00000

 k-point    31 :       0.2727    0.2727    0.0909
  band No.  band energies     occupation 
      1      -5.4586      2.00000
      2      -3.6169      2.00000
[...]
     20       8.1013      0.00000
     21       9.1416      0.00000
     22       9.3278      0.00000
     23       9.3278      0.00000
     24       9.3342      0.00000
     25      10.6345      0.00000

 k-point    45 :       0.4545    0.3636    0.1818
  band No.  band energies     occupation 
      1      -4.6903      2.00000
      2      -4.3505      2.00000
      3      -3.7639      2.00000
      4      -3.5529      2.00000
      5      -0.9325      2.00000
      6      -0.6980      2.00000
      7      -0.0215      2.00000
      8       0.3910      2.00000
      9       2.1632      2.00000
     10       2.3807      2.00000
     11       3.0033      2.00000
     12       3.4013      2.00000
     13       3.8144      2.00000
     14       3.8585      2.00000
     15       4.1527      2.00000
     16       4.5772      2.00000
     17       7.8528      0.00000
     18       8.1564      0.00000
     19       8.2722      0.00000
     20       8.4661      0.00000
     21       8.9106      0.00000
     22       8.9505      0.00000
     23       8.9769      0.00000
     24       9.7396      0.00000
     25       9.7615      0.00000

 k-point    46 :       0.4545    0.4545    0.1818
  band No.  band energies     occupation 
      1      -4.4220      2.00000
      2      -4.1088      2.00000
      3      -4.1088      2.00000
      4      -3.8360      2.00000
      5      -0.7000      2.00000
      6      -0.3911      2.00000
      7      -0.3911      2.00000
      8      -0.0262      2.00000
      9       2.4241      2.00000
     10       2.7112      2.00000
     11       2.7112      2.00000
     12       3.0535      2.00000
     13       4.1499      2.00000
     14       4.2413      2.00000
     15       4.2413      2.00000
     16       4.5298      2.00000
     17       7.8790      0.00000
     18       8.0972      0.00000
     19       8.1823      0.00000
     20       8.1823      0.00000
     21       9.1673      0.00000
     22       9.1673      0.00000
     23       9.4142      0.00000
     24       9.5021      0.00000
     25       9.8749      0.00000

 k-point    47 :       0.2727    0.2727    0.2727
  band No.  band energies     occupation 
      1      -5.2727      2.00000
      2      -3.6101      2.00000
      3      -3.6101      2.00000
      4      -3.6101      2.00000
      5      -0.7406      2.00000
      6      -0.7406      2.00000
      7      -0.7406      2.00000
      8       1.3308      2.00000
      9       2.3001      2.00000
     10       2.3001      2.00000
     11       2.3001      2.00000
     12       3.5626      2.00000
     13       3.5626      2.00000
     14       3.5626      2.00000
     15       4.7941      2.00000
     16       4.7941      2.00000
     17       7.2943      0.00000
     18       7.2943      0.00000
     19       7.2943      0.00000
     20       7.4891      0.00000
     21       9.1301      0.00000
     22       9.1301      0.00000
     23      10.5121      0.00000
     24      10.5121      0.00000
     25      10.5121      0.00000

 k-point    48 :       0.3636    0.2727    0.2727
  band No.  band energies     occupation 
      1      -5.0448      2.00000
      2      -4.0284      2.00000
      3      -3.5373      2.00000
      4      -3.5373      2.00000
      5      -0.9590      2.00000
      6      -0.9590      2.00000
      7      -0.4084      2.00000
      8       0.8296      2.00000
      9       2.3701      2.00000
     10       2.3701      2.00000
     11       2.9026      2.00000
     12       3.6457      2.00000
     13       3.6457      2.00000
     14       3.7491      2.00000
     15       4.5196      2.00000
     16       4.6477      2.00000
     17       7.5400      0.00000
     18       7.5824      0.00000
     19       7.6252      0.00000
     20       7.6252      0.00000
     21       8.9524      0.00000
     22       9.3782      0.00000
     23       9.9379      0.00000
     24       9.9379      0.00000
     25      10.0052      0.00000

 k-point    49 :       0.4545    0.2727    0.2727
  band No.  band energies     occupation 
      1      -4.7573      2.00000
      2      -4.4156      2.00000
      3      -3.4899      2.00000
      4      -3.4899      2.00000
      5      -1.0864      2.00000
      6      -1.0864      2.00000
      7      -0.0404      2.00000
      8       0.3713      2.00000
      9       2.4235      2.00000
     10       2.4235      2.00000
     11       3.5480      2.00000
     12       3.6520      2.00000
     13       3.6520      2.00000
     14       3.9783      2.00000
     15       4.1677      2.00000
     16       4.2403      2.00000
     17       7.7783      0.00000
     18       7.8272      0.00000
     19       8.2243      0.00000
     20       8.2243      0.00000
     21       8.9139      0.00000
     22       9.0518      0.00000
     23       9.0518      0.00000
     24       9.3197      0.00000
     25       9.7024      0.00000

 k-point    50 :       0.3636    0.3636    0.2727
  band No.  band energies     occupation 
      1      -4.8275      2.00000
      2      -3.8925      2.00000
      3      -3.8925      2.00000
      4      -3.5583      2.00000
      5      -1.1018      2.00000
      6      -0.7349      2.00000
      7      -0.7349      2.00000
      8       0.3523      2.00000
      9       2.5728      2.00000
     10       2.9594      2.00000
     11       2.9594      2.00000
     12       3.8640      2.00000
     13       3.8640      2.00000
     14       3.8771      2.00000
     15       4.3002      2.00000
     16       4.7218      2.00000
     17       7.4912      0.00000
     18       7.6354      0.00000
     19       7.8246      0.00000
     20       7.8246      0.00000
     21       9.0600      0.00000
     22       9.2180      0.00000
     23       9.3508      0.00000
     24       9.3508      0.00000
     25       9.8808      0.00000

 k-point    51 :       0.4545    0.3636    0.2727
  band No.  band energies     occupation 
      1      -4.5564      2.00000
      2      -4.2401      2.00000
      3      -3.7507      2.00000
      4      -3.6309      2.00000
      5      -1.1126      2.00000
      6      -0.9824      2.00000
      7      -0.4379      2.00000
      8      -0.0734      2.00000
      9       2.7598      2.00000
     10       2.9027      2.00000
     11       3.5164      2.00000
     12       3.9470      2.00000
     13       3.9615      2.00000
     14       3.9714      2.00000
     15       4.1587      2.00000
     16       4.5044      2.00000
     17       7.7137      0.00000
     18       7.9194      0.00000
     19       7.9395      0.00000
     20       8.2402      0.00000
     21       8.7616      0.00000
     22       8.9215      0.00000
     23       8.9382      0.00000
     24       9.2054      0.00000
     25       9.4340      0.00000

 k-point    52 :       0.4545    0.4545    0.2727
  band No.  band energies     occupation 
      1      -4.3112      2.00000
      2      -4.0352      2.00000
      3      -4.0352      2.00000
      4      -3.8224      2.00000
      5      -1.0012      2.00000
      6      -0.7675      2.00000
      7      -0.7675      2.00000
      8      -0.4588      2.00000
      9       3.0577      2.00000
     10       3.3177      2.00000
     11       3.3177      2.00000
     12       3.6661      2.00000
     13       4.2175      2.00000
     14       4.2827      2.00000
     15       4.2827      2.00000
     16       4.5214      2.00000
     17       7.7525      0.00000
     18       7.8713      0.00000
     19       7.9732      0.00000
     20       7.9732      0.00000
     21       8.8973      0.00000
     22       8.8973      0.00000
     23       9.1287      0.00000
     24       9.2134      0.00000
     25       9.2602      0.00000

 k-point    53 :       0.3636    0.3636    0.3636
  band No.  band energies     occupation 
      1      -4.6258      2.00000
      2      -3.8181      2.00000
      3      -3.8181      2.00000
      4      -3.8181      2.00000
      5      -1.0091      2.00000
      6      -1.0091      2.00000
      7      -1.0091      2.00000
      8      -0.1013      2.00000
      9       3.2315      2.00000
     10       3.2315      2.00000
     11       3.2315      2.00000
     12       4.0254      2.00000
     13       4.0254      2.00000
     14       4.0254      2.00000
     15       4.5652      2.00000
     16       4.5652      2.00000
     17       7.2296      0.00000
     18       7.7637      0.00000
     19       7.7637      0.00000
     20       7.7637      0.00000
     21       9.0800      0.00000
     22       9.0800      0.00000
     23       9.2290      0.00000
     24       9.2290      0.00000
     25       9.2290      0.00000

 k-point    54 :       0.4545    0.3636    0.3636
  band No.  band energies     occupation 
      1      -4.3796      2.00000
      2      -4.1029      2.00000
      3      -3.7697      2.00000
      4      -3.7697      2.00000
      5      -1.1623      2.00000
      6      -1.1623      2.00000
      7      -0.7992      2.00000
      8      -0.4907      2.00000
      9       3.3705      2.00000
     10       3.3705      2.00000
     11       3.8742      2.00000
     12       4.1265      2.00000
     13       4.1265      2.00000
     14       4.1993      2.00000
     15       4.3850      2.00000
     16       4.3866      2.00000
     17       7.3668      0.00000
     18       7.6832      0.00000
     19       7.8895      0.00000
     20       7.8895      0.00000
     21       8.8623      0.00000
     22       8.8623      0.00000
     23       8.8825      0.00000
     24       8.9219      0.00000
     25       9.2187      0.00000

 k-point    55 :       0.4545    0.4545    0.3636
  band No.  band energies     occupation 
      1      -4.1736      2.00000
      2      -3.9603      2.00000
      3      -3.9603      2.00000
      4      -3.8408      2.00000
      5      -1.1911      2.00000
      6      -1.0622      2.00000
      7      -1.0622      2.00000
      8      -0.8292      2.00000
      9       3.7001      2.00000
     10       3.8828      2.00000
     11       3.8828      2.00000
     12       4.2012      2.00000
     13       4.2983      2.00000
     14       4.3263      2.00000
     15       4.3263      2.00000
     16       4.4961      2.00000
     17       7.3183      0.00000
     18       7.5864      0.00000
     19       7.5864      0.00000
     20       7.6540      0.00000
     21       8.8684      0.00000
     22       8.8684      0.00000
     23       8.9406      0.00000
     24       9.0289      0.00000
     25       9.0333      0.00000

 k-point    56 :       0.4545    0.4545    0.4545
  band No.  band energies     occupation 
      1      -4.0308      2.00000
      2      -3.9115      2.00000
      3      -3.9115      2.00000
      4      -3.9115      2.00000
      5      -1.2247      2.00000
      6      -1.2247      2.00000
      7      -1.2247      2.00000
      8      -1.0962      2.00000
      9       4.2330      2.00000
     10       4.2330      2.00000
     11       4.2330      2.00000
     12       4.3795      2.00000
     13       4.3795      2.00000
     14       4.3795      2.00000
     15       4.4484      2.00000
     16       4.4484      2.00000
     17       7.0945      0.00000
     18       7.2759      0.00000
     19       7.2759      0.00000
     20       7.2759      0.00000
     21       8.9165      0.00000
     22       8.9165      0.00000
     23       8.9165      0.00000
     24       8.9777      0.00000
     25       8.9777      0.00000


--------------------------------------------------------------------------------------------------------


 soft charge-density along one line, spin component           1
         0         1         2         3         4         5         6         7         8         9
 total charge-density along one line
 
 pseudopotential strength for first ion, spin component:           1
 18.438  25.724  -0.000  -0.000   0.000  -0.000  -0.000   0.000
 25.724  35.895  -0.000  -0.000   0.000  -0.000  -0.000   0.000
 -0.000  -0.000   4.181  -0.000   0.000   7.791  -0.000   0.000
 -0.000  -0.000  -0.000   4.181  -0.000  -0.000   7.791  -0.000
  0.000   0.000   0.000  -0.000   4.181   0.000  -0.000   7.791
 -0.000  -0.000   7.791  -0.000   0.000  14.529  -0.000   0.000
 -0.000  -0.000  -0.000   7.791  -0.000  -0.000  14.529  -0.000
  0.000   0.000   0.000  -0.000   7.791   0.000  -0.000  14.529
 total augmentation occupancy for first ion, spin component:           1
  5.530  -2.066  -0.000   0.000   0.000   0.000  -0.000   0.000
 -2.066   0.889   0.000   0.000   0.000   0.000   0.000  -0.000
 -0.000  -0.000   2.902   0.000   0.000  -0.649   0.000   0.000
  0.000   0.000   0.000   2.902   0.000   0.000  -0.649   0.000
 -0.000   0.000   0.000  -0.000   2.902   0.000   0.000  -0.649
  0.000  -0.000  -0.649   0.000   0.000   0.153  -0.000  -0.000
 -0.000   0.000   0.000  -0.649  -0.000  -0.000   0.153   0.000
 -0.000   0.000   0.000  -0.000  -0.649  -0.000   0.000   0.153


------------------------ aborting loop because EDIFF is reached ----------------------------------------


    CHARGE:  cpu time    0.0672: real time    0.0675
    FORLOC:  cpu time    0.0011: real time    0.0011
    FORNL :  cpu time    0.1197: real time    0.1200
    STRESS:  cpu time    0.2825: real time    0.2834
    FORCOR:  cpu time    0.0124: real time    0.0124
    FORHAR:  cpu time    0.0035: real time    0.0036
    MIXING:  cpu time    0.0007: real time    0.0007
    OFIELD:  cpu time    0.0000: real time    0.0000

  FORCE on cell =-STRESS in cart. coord.  units (eV):
  Direction    XX          YY          ZZ          XY          YZ          ZX
  --------------------------------------------------------------------------------------
  Alpha Z    13.16759    13.16759    13.16759
  Ewald    -302.55446  -302.55446  -302.55446    -0.00000    -0.00000     0.00000
  Hartree    20.23506    20.23506    20.23506     0.00000    -0.00000    -0.00000
  E(xc)    -100.97328  -100.97328  -100.97328    -0.00000     0.00000     0.00000
  Local    -118.03512  -118.03512  -118.03512    -0.00000     0.00000    -0.00000
  n-local   309.66032   313.13480   306.52427    -2.94229    -2.29392    -1.50607
  augment   -46.59828   -46.59828   -46.59828     0.00000     0.00000     0.00000
  Kinetic   217.73384   229.53151   227.60526    -3.73595    -5.28129    -2.56046
  Fock        0.00000     0.00000     0.00000     0.00000     0.00000     0.00000
  -------------------------------------------------------------------------------------
  Total      -0.02848    -0.02848    -0.02848    -0.00000    -0.00000     0.00000
  in kB      -0.27885    -0.27885    -0.27885    -0.00000    -0.00000     0.00000
  external pressure =       -0.28 kB  Pullay stress =        0.00 kB


 VOLUME and BASIS-vectors are now :
 -----------------------------------------------------------------------------
  energy-cutoff  :      600.00
  volume of cell :      163.62
      direct lattice vectors                 reciprocal lattice vectors
     5.469437815  0.000000000 -0.000000000     0.182834147 -0.000000000  0.000000000
     0.000000000  5.469437815  0.000000000    -0.000000000  0.182834147 -0.000000000
    -0.000000000  0.000000000  5.469437815     0.000000000 -0.000000000  0.182834147

  length of vectors
     5.469437815  5.469437815  5.469437815     0.182834147  0.182834147  0.182834147


 FORCES acting on ions
    electron-ion (+dipol)            ewald-force                    non-local-force                 convergence-correction
 -----------------------------------------------------------------------------------------------
   0.191E-12 0.161E-14 0.109E-13   0.107E-13 0.711E-14 0.000E+00   0.520E-17 -.234E-16 0.191E-16   -.108E-15 -.318E-14 0.344E-14
   0.189E-12 -.135E-13 0.249E-14   0.107E-13 0.711E-14 -.355E-14   -.694E-17 0.269E-16 0.234E-16   -.662E-16 -.118E-14 -.370E-14
   0.178E-12 0.459E-14 -.197E-12   0.107E-13 0.711E-14 -.355E-14   0.520E-17 0.867E-17 0.165E-16   0.990E-15 -.298E-14 -.383E-14
   0.176E-12 -.103E-12 -.151E-12   0.107E-13 0.711E-14 0.000E+00   -.121E-16 -.781E-17 0.312E-16   0.102E-14 -.121E-14 0.328E-14
   -.194E-12 -.848E-13 0.226E-12   -.140E-13 -.686E-14 0.362E-14   -.434E-17 -.434E-17 -.286E-16   -.453E-15 -.135E-14 -.218E-14
   -.204E-12 0.273E-13 0.436E-12   -.102E-13 -.629E-14 0.361E-14   -.182E-16 0.347E-17 -.217E-16   -.636E-14 0.106E-14 -.229E-14
   -.209E-12 0.265E-12 0.165E-12   -.105E-13 -.793E-14 0.356E-14   0.156E-16 -.186E-16 -.113E-16   -.650E-14 -.119E-14 -.289E-15
   -.192E-12 -.288E-12 0.283E-13   -.151E-13 -.736E-14 0.354E-14   0.173E-17 0.217E-17 -.182E-16   -.549E-15 0.917E-15 -.269E-15
 -----------------------------------------------------------------------------------------------
   -.640E-13 -.190E-12 0.521E-12   -.715E-14 -.198E-16 0.723E-14   -.139E-16 -.130E-16 0.104E-16   -.120E-13 -.911E-14 -.584E-14
 
 
 POSITION                                       TOTAL-FORCE (eV/Angst)
 -----------------------------------------------------------------------------------
     -0.00000     -0.00000      0.00000         0.000000     -0.000000      0.000000
      0.00000      2.73472      2.73472         0.000000     -0.000000      0.000000
      2.73472      0.00000      2.73472         0.000000      0.000000      0.000000
      2.73472      2.73472     -0.00000         0.000000     -0.000000      0.000000
      1.36736      1.36736      1.36736        -0.000000      0.000000     -0.000000
      4.10208      4.10208      1.36736         0.000000      0.000000     -0.000000
      4.10208      1.36736      4.10208        -0.000000      0.000000     -0.000000
      1.36736      4.10208      4.10208        -0.000000      0.000000     -0.000000
 -----------------------------------------------------------------------------------
    total drift:                               -0.000000     -0.000000      0.000000


--------------------------------------------------------------------------------------------------------



  FREE ENERGIE OF THE ION-ELECTRON SYSTEM (eV)
  ---------------------------------------------------
  free  energy   TOTEN  =       -43.40014930 eV

  energy  without entropy=      -43.40014926  energy(sigma->0) =      -43.40014928
 
 d Force = 0.0000000E+00[ 0.000E+00, 0.000E+00]  d Energy = 0.1062458E+00-0.106E+00
 d Force = 0.0000000E+00[ 0.000E+00, 0.000E+00]  d Ewald  = 0.1467174E+02-0.147E+02


--------------------------------------------------------------------------------------------------------


    POTLOK:  cpu time    0.0134: real time    0.0135


--------------------------------------------------------------------------------------------------------




--------------------------------------------------------------------------------------------------------


  
 reached required accuracy - stopping structural energy minimisation
 writing wavefunctions
     LOOP+:  cpu time    7.7506: real time    8.0239
    4ORBIT:  cpu time    0.0000: real time    0.0000

 total amount of memory used by VASP on root node    38589. kBytes
========================================================================

   base      :      30000. kBytes
   nonl-proj :       2598. kBytes
   fftplans  :       1171. kBytes
   grid      :       1637. kBytes
   one-center:          3. kBytes
   wavefun   :       3180. kBytes
 
  
  
 General timing and accounting informations for this job:
 ========================================================
  
                  Total CPU time used (sec):       28.163
                            User time (sec):       27.322
                          System time (sec):        0.841
                         Elapsed time (sec):       29.439
  
                   Maximum memory used (kb):      147960.
                   Average memory used (kb):           0.
  
                          Minor page faults:        50992
                          Major page faults:            0
                 Voluntary context switches:         2733
