<?xml version="1.0" encoding="ISO-8859-1"?>
<modeling>
 <generator>
  <i name="program" type="string">vasp </i>
  <i name="version" type="string">5.4.1  </i>
  <i name="subversion" type="string">05Feb16 (build Feb 24 2020 14:33:01) complex                          parallel </i>
  <i name="platform" type="string">IFC91_ompi </i>
  <i name="date" type="string">2020 02 27 </i>
  <i name="time" type="string">23:41:08 </i>
 </generator>
 <incar>
  <i type="string" name="SYSTEM"> diamond Si</i>
  <i type="int" name="ISTART">     0</i>
  <i type="string" name="PREC">accurate</i>
  <i type="int" name="NSIM">     4</i>
  <i type="int" name="ICHARG">     2</i>
  <i type="int" name="NELM">    60</i>
  <i type="int" name="NELMDL">     3</i>
  <i type="int" name="NELMIN">     0</i>
  <i type="int" name="IBRION">     2</i>
  <i name="EDIFF">      0.00010000</i>
  <i name="EDIFFG">     -0.01000000</i>
  <i type="int" name="NSW">     9</i>
  <i type="int" name="ISIF">     3</i>
  <i name="ENCUT">    600.00000000</i>
  <i name="POTIM">      1.00000000</i>
  <i type="logical" name="LPLANE"> F  </i>
  <i type="int" name="ISMEAR">     0</i>
  <i name="SIGMA">      0.10000000</i>
  <v type="int" name="KPOINT_BSE">    -1     0     0     0</v>
  <i type="int" name="NELM">    60</i>
 </incar>
 <kpoints>
  <generation param="Monkhorst-Pack">
   <v type="int" name="divisions">      11       11       11 </v>
   <v name="usershift">      0.00000000       0.00000000       0.00000000 </v>
   <v name="genvec1">      0.09090909       0.00000000       0.00000000 </v>
   <v name="genvec2">      0.00000000       0.09090909       0.00000000 </v>
   <v name="genvec3">      0.00000000       0.00000000       0.09090909 </v>
   <v name="shift">      0.00000000       0.00000000       0.00000000 </v>
  </generation>
  <varray name="kpointlist" >
   <v>       0.00000000       0.00000000       0.00000000 </v>
   <v>       0.09090909       0.00000000       0.00000000 </v>
   <v>       0.18181818       0.00000000       0.00000000 </v>
   <v>       0.27272727       0.00000000       0.00000000 </v>
   <v>       0.36363636       0.00000000       0.00000000 </v>
   <v>       0.45454545       0.00000000       0.00000000 </v>
   <v>       0.09090909       0.09090909       0.00000000 </v>
   <v>       0.18181818       0.09090909       0.00000000 </v>
   <v>       0.27272727       0.09090909       0.00000000 </v>
   <v>       0.36363636       0.09090909       0.00000000 </v>
   <v>       0.45454545       0.09090909       0.00000000 </v>
   <v>       0.18181818       0.18181818       0.00000000 </v>
   <v>       0.27272727       0.18181818       0.00000000 </v>
   <v>       0.36363636       0.18181818       0.00000000 </v>
   <v>       0.45454545       0.18181818       0.00000000 </v>
   <v>       0.27272727       0.27272727       0.00000000 </v>
   <v>       0.36363636       0.27272727       0.00000000 </v>
   <v>       0.45454545       0.27272727       0.00000000 </v>
   <v>       0.36363636       0.36363636       0.00000000 </v>
   <v>       0.45454545       0.36363636       0.00000000 </v>
   <v>       0.45454545       0.45454545       0.00000000 </v>
   <v>       0.09090909       0.09090909       0.09090909 </v>
   <v>       0.18181818       0.09090909       0.09090909 </v>
   <v>       0.27272727       0.09090909       0.09090909 </v>
   <v>       0.36363636       0.09090909       0.09090909 </v>
   <v>       0.45454545       0.09090909       0.09090909 </v>
   <v>       0.18181818       0.18181818       0.09090909 </v>
   <v>       0.27272727       0.18181818       0.09090909 </v>
   <v>       0.36363636       0.18181818       0.09090909 </v>
   <v>       0.45454545       0.18181818       0.09090909 </v>
   <v>       0.27272727       0.27272727       0.09090909 </v>
   <v>       0.36363636       0.27272727       0.09090909 </v>
   <v>       0.45454545       0.27272727       0.09090909 </v>
   <v>       0.36363636       0.36363636       0.09090909 </v>
   <v>       0.45454545       0.36363636       0.09090909 </v>
   <v>       0.45454545       0.45454545       0.09090909 </v>
   <v>       0.18181818       0.18181818       0.18181818 </v>
   <v>       0.27272727       0.18181818       0.18181818 </v>
   <v>       0.36363636       0.18181818       0.18181818 </v>
   <v>       0.45454545       0.18181818       0.18181818 </v>
   <v>       0.27272727       0.27272727       0.18181818 </v>
   <v>       0.36363636       0.27272727       0.18181818 </v>
   <v>       0.45454545       0.27272727       0.18181818 </v>
   <v>       0.36363636       0.36363636       0.18181818 </v>
   <v>       0.45454545       0.36363636       0.18181818 </v>
   <v>       0.45454545       0.45454545       0.18181818 </v>
   <v>       0.27272727       0.27272727       0.27272727 </v>
   <v>       0.36363636       0.27272727       0.27272727 </v>
   <v>       0.45454545       0.27272727       0.27272727 </v>
   <v>       0.36363636       0.36363636       0.27272727 </v>
   <v>       0.45454545       0.36363636       0.27272727 </v>
   <v>       0.45454545       0.45454545       0.27272727 </v>
   <v>       0.36363636       0.36363636       0.36363636 </v>
   <v>       0.45454545       0.36363636       0.36363636 </v>
   <v>       0.45454545       0.45454545       0.36363636 </v>
   <v>       0.45454545       0.45454545       0.45454545 </v>
  </varray>
  <varray name="weights" >
   <v>       0.00075131 </v>
   <v>       0.00450789 </v>
   <v>       0.00450789 </v>
   <v>       0.00450789 </v>
   <v>       0.00450789 </v>
   <v>       0.00450789 </v>
   <v>       0.00901578 </v>
   <v>       0.01803156 </v>
   <v>       0.01803156 </v>
   <v>       0.01803156 </v>
   <v>       0.01803156 </v>
   <v>       0.00901578 </v>
   <v>       0.01803156 </v>
   <v>       0.01803156 </v>
   <v>       0.01803156 </v>
   <v>       0.00901578 </v>
   <v>       0.01803156 </v>
   <v>       0.01803156 </v>
   <v>       0.00901578 </v>
   <v>       0.01803156 </v>
   <v>       0.00901578 </v>
   <v>       0.00601052 </v>
   <v>       0.01803156 </v>
   <v>       0.01803156 </v>
   <v>       0.01803156 </v>
   <v>       0.01803156 </v>
   <v>       0.01803156 </v>
   <v>       0.03606311 </v>
   <v>       0.03606311 </v>
   <v>       0.03606311 </v>
   <v>       0.01803156 </v>
   <v>       0.03606311 </v>
   <v>       0.03606311 </v>
   <v>       0.01803156 </v>
   <v>       0.03606311 </v>
   <v>       0.01803156 </v>
   <v>       0.00601052 </v>
   <v>       0.01803156 </v>
   <v>       0.01803156 </v>
   <v>       0.01803156 </v>
   <v>       0.01803156 </v>
   <v>       0.03606311 </v>
   <v>       0.03606311 </v>
   <v>       0.01803156 </v>
   <v>       0.03606311 </v>
   <v>       0.01803156 </v>
   <v>       0.00601052 </v>
   <v>       0.01803156 </v>
   <v>       0.01803156 </v>
   <v>       0.01803156 </v>
   <v>       0.03606311 </v>
   <v>       0.01803156 </v>
   <v>       0.00601052 </v>
   <v>       0.01803156 </v>
   <v>       0.01803156 </v>
   <v>       0.00601052 </v>
  </varray>
 </kpoints>
 <parameters>
  <separator name="general" >
   <i type="string" name="SYSTEM">diamond Si</i>
   <i type="logical" name="LCOMPAT"> F  </i>
  </separator>
  <separator name="electronic" >
   <i type="string" name="PREC">accura</i>
   <i name="ENMAX">    600.00000000</i>
   <i name="ENAUG">    322.06900000</i>
   <i name="EDIFF">      0.00010000</i>
   <i type="int" name="IALGO">    38</i>
   <i type="int" name="IWAVPR">    11</i>
   <i type="int" name="NBANDS">    25</i>
   <i name="NELECT">     32.00000000</i>
   <i type="int" name="TURBO">     0</i>
   <i type="int" name="IRESTART">     0</i>
   <i type="int" name="NREBOOT">     0</i>
   <i type="int" name="NMIN">     0</i>
   <i name="EREF">      0.00000000</i>
   <separator name="electronic smearing" >
    <i type="int" name="ISMEAR">     0</i>
    <i name="SIGMA">      0.10000000</i>
    <i name="KSPACING">      0.50000000</i>
    <i type="logical" name="KGAMMA"> T  </i>
   </separator>
   <separator name="electronic projectors" >
    <i type="logical" name="LREAL"> F  </i>
    <v name="ROPT">      0.00000000</v>
    <i type="int" name="LMAXPAW">  -100</i>
    <i type="int" name="LMAXMIX">     2</i>
    <i type="logical" name="NLSPLINE"> F  </i>
   </separator>
   <separator name="electronic startup" >
    <i type="int" name="ISTART">     0</i>
    <i type="int" name="ICHARG">     2</i>
    <i type="int" name="INIWAV">     1</i>
   </separator>
   <separator name="electronic spin" >
    <i type="int" name="ISPIN">     1</i>
    <i type="logical" name="LNONCOLLINEAR"> F  </i>
    <v name="MAGMOM">      1.00000000      1.00000000      1.00000000      1.00000000      1.00000000      1.00000000      1.00000000      1.00000000</v>
    <i name="NUPDOWN">     -1.00000000</i>
    <i type="logical" name="LSORBIT"> F  </i>
    <v name="SAXIS">      0.00000000      0.00000000      1.00000000</v>
    <i type="logical" name="LSPIRAL"> F  </i>
    <v name="QSPIRAL">      0.00000000      0.00000000      0.00000000</v>
    <i type="logical" name="LZEROZ"> F  </i>
   </separator>
   <separator name="electronic exchange-correlation" >
    <i type="logical" name="LASPH"> F  </i>
    <i type="logical" name="LMETAGGA"> F  </i>
   </separator>
   <separator name="electronic convergence" >
    <i type="int" name="NELM">    60</i>
    <i type="int" name="NELMDL">     3</i>
    <i type="int" name="NELMIN">     0</i>
    <i name="ENINI">    600.00000000</i>
    <separator name="electronic convergence detail" >
     <i type="logical" name="LDIAG"> T  </i>
     <i type="logical" name="LSUBROT"> F  </i>
     <i name="WEIMIN">      0.00100000</i>
     <i name="EBREAK">      0.00000100</i>
     <i name="DEPER">      0.30000000</i>
     <i type="int" name="NRMM">     4</i>
     <i name="TIME">      0.40000000</i>
    </separator>
   </separator>
   <separator name="electronic mixer" >
    <i name="AMIX">      0.40000000</i>
    <i name="BMIX">      1.00000000</i>
    <i name="AMIN">      0.10000000</i>
    <i name="AMIX_MAG">      1.60000000</i>
    <i name="BMIX_MAG">      1.00000000</i>
    <separator name="electronic mixer details" >
     <i type="int" name="IMIX">     4</i>
     <i type="logical" name="MIXFIRST"> F  </i>
     <i type="int" name="MAXMIX">   -45</i>
     <i name="WC">    100.00000000</i>
     <i type="int" name="INIMIX">     1</i>
     <i type="int" name="MIXPRE">     1</i>
     <i type="int" name="MREMOVE">     5</i>
    </separator>
   </separator>
   <separator name="electronic dipolcorrection" >
    <i type="logical" name="LDIPOL"> F  </i>
    <i type="logical" name="LMONO"> F  </i>
    <i type="int" name="IDIPOL">     0</i>
    <i name="EPSILON">      1.00000000</i>
    <v name="DIPOL">   -100.00000000   -100.00000000   -100.00000000</v>
    <i name="EFIELD">      0.00000000</i>
   </separator>
  </separator>
  <separator name="grids" >
   <i type="int" name="NGX">    48</i>
   <i type="int" name="NGY">    48</i>
   <i type="int" name="NGZ">    48</i>
   <i type="int" name="NGXF">    96</i>
   <i type="int" name="NGYF">    96</i>
   <i type="int" name="NGZF">    96</i>
   <i type="logical" name="ADDGRID"> F  </i>
  </separator>
  <separator name="ionic" >
   <i type="int" name="NSW">     9</i>
   <i type="int" name="IBRION">     2</i>
   <i type="int" name="ISIF">     3</i>
   <i name="PSTRESS">      0.00000000</i>
   <i name="EDIFFG">     -0.01000000</i>
   <i type="int" name="NFREE">     1</i>
   <i name="POTIM">      1.00000000</i>
   <i name="SMASS">     -3.00000000</i>
   <i name="SCALEE">      1.00000000</i>
  </separator>
  <separator name="ionic md" >
   <i name="TEBEG">      0.00010000</i>
   <i name="TEEND">      0.00010000</i>
   <i type="int" name="NBLOCK">     1</i>
   <i type="int" name="KBLOCK">     9</i>
   <i type="int" name="NPACO">   256</i>
   <i name="APACO">     16.00000000</i>
  </separator>
  <separator name="symmetry" >
   <i type="int" name="ISYM">     2</i>
   <i name="SYMPREC">      0.00001000</i>
  </separator>
  <separator name="dos" >
   <i type="logical" name="LORBIT"> F  </i>
   <v name="RWIGS">     -1.00000000</v>
   <i type="int" name="NEDOS">   301</i>
   <i name="EMIN">     10.00000000</i>
   <i name="EMAX">    -10.00000000</i>
   <i name="EFERMI">      0.00000000</i>
  </separator>
  <separator name="writing" >
   <i type="int" name="NWRITE">     2</i>
   <i type="logical" name="LWAVE"> T  </i>
   <i type="logical" name="LCHARG"> T  </i>
   <i type="logical" name="LPARD"> F  </i>
   <i type="logical" name="LVTOT"> F  </i>
   <i type="logical" name="LVHAR"> F  </i>
   <i type="logical" name="LELF"> F  </i>
   <i type="logical" name="LOPTICS"> F  </i>
   <v name="STM">      0.00000000      0.00000000      0.00000000      0.00000000      0.00000000      0.00000000      0.00000000</v>
  </separator>
  <separator name="performance" >
   <i type="int" name="NPAR">     5</i>
   <i type="int" name="NSIM">     4</i>
   <i type="int" name="NBLK">    -1</i>
   <i type="logical" name="LPLANE"> F  </i>
   <i type="logical" name="LSCALAPACK"> T  </i>
   <i type="logical" name="LSCAAWARE"> F  </i>
   <i type="logical" name="LSCALU"> F  </i>
   <i type="logical" name="LASYNC"> F  </i>
   <i type="logical" name="LORBITALREAL"> F  </i>
  </separator>
  <separator name="miscellaneous" >
   <i type="int" name="IDIOT">     3</i>
   <i type="logical" name="LMUSIC"> F  </i>
   <v name="POMASS">     28.08500000</v>
   <v name="DARWINR">      0.00000000</v>
   <v name="DARWINV">      1.00000000</v>
   <i type="logical" name="LCORR"> T  </i>
  </separator>
  <i type="logical" name="GGA_COMPAT"> T  </i>
  <i type="logical" name="LBERRY"> F  </i>
  <i type="int" name="ICORELEVEL">     0</i>
  <i type="logical" name="LDAU"> F  </i>
  <i type="int" name="I_CONSTRAINED_M">     0</i>
  <separator name="electronic exchange-correlation" >
   <i type="string" name="GGA">--</i>
   <i type="int" name="VOSKOWN">     0</i>
   <i type="logical" name="LHFCALC"> F  </i>
   <i type="string" name="PRECFOCK"></i>
   <i type="logical" name="LSYMGRAD"> F  </i>
   <i type="logical" name="LHFONE"> F  </i>
   <i type="logical" name="LRHFCALC"> F  </i>
   <i type="logical" name="LTHOMAS"> F  </i>
   <i type="logical" name="LMODELHF"> F  </i>
   <i name="ENCUT4O">     -1.00000000</i>
   <i type="int" name="EXXOEP">     0</i>
   <i type="int" name="FOURORBIT">     0</i>
   <i name="AEXX">      0.00000000</i>
   <i name="HFALPHA">      0.00000000</i>
   <i name="MCALPHA">      0.00000000</i>
   <i name="ALDAX">      1.00000000</i>
   <i name="AGGAX">      1.00000000</i>
   <i name="ALDAC">      1.00000000</i>
   <i name="AGGAC">      1.00000000</i>
   <i type="int" name="NKREDX">     1</i>
   <i type="int" name="NKREDY">     1</i>
   <i type="int" name="NKREDZ">     1</i>
   <i type="logical" name="SHIFTRED"> F  </i>
   <i type="logical" name="ODDONLY"> F  </i>
   <i type="logical" name="EVENONLY"> F  </i>
   <i type="int" name="LMAXFOCK">     0</i>
   <i type="int" name="NMAXFOCKAE">     0</i>
   <i type="logical" name="LFOCKAEDFT"> F  </i>
   <i name="HFSCREEN">      0.00000000</i>
   <i name="HFSCREENC">      0.00000000</i>
   <i type="int" name="NBANDSGWLOW">     0</i>
  </separator>
  <separator name="vdW DFT" >
   <i type="logical" name="LUSE_VDW"> F  </i>
   <i name="Zab_VDW">     -0.84910000</i>
   <i name="PARAM1">      0.12340000</i>
   <i name="PARAM2">      1.00000000</i>
   <i name="PARAM3">      0.00000000</i>
  </separator>
  <separator name="model GW" >
   <i type="int" name="MODEL_GW">     0</i>
   <i name="MODEL_EPS0">     12.01436085</i>
   <i name="MODEL_ALPHA">      1.00000000</i>
  </separator>
  <separator name="linear response parameters" >
   <i type="logical" name="LEPSILON"> F  </i>
   <i type="logical" name="LRPA"> F  </i>
   <i type="logical" name="LNABLA"> F  </i>
   <i type="logical" name="LVEL"> F  </i>
   <i type="int" name="KINTER">     0</i>
   <i name="CSHIFT">      0.10000000</i>
   <i name="OMEGAMAX">     -1.00000000</i>
   <i name="DEG_THRESHOLD">      0.00200000</i>
  </separator>
  <separator name="orbital magnetization" >
   <i type="logical" name="NUCIND"> F  </i>
   <v name="MAGPOS">      0.00000000      0.00000000      0.00000000</v>
   <i type="logical" name="LNICSALL"> T  </i>
   <i type="logical" name="ORBITALMAG"> F  </i>
   <i type="logical" name="LMAGBLOCH"> F  </i>
   <i type="logical" name="LCHIMAG"> F  </i>
   <i type="logical" name="LGAUGE"> T  </i>
   <i type="int" name="MAGATOM">     0</i>
   <v name="MAGDIPOL">      0.00000000      0.00000000      0.00000000</v>
   <v name="AVECCONST">      0.00000000      0.00000000      0.00000000</v>
  </separator>
  <separator name="response functions" >
   <i type="logical" name="LADDER"> F  </i>
   <i type="logical" name="LFXC"> F  </i>
   <i type="logical" name="LHARTREE"> T  </i>
   <i type="int" name="IBSE">     0</i>
   <v type="int" name="KPOINT">    -1     0     0     0</v>
   <i type="logical" name="LTCTE"> F  </i>
   <i type="logical" name="LTETE"> F  </i>
   <i type="logical" name="LTRIPLET"> F  </i>
   <i type="logical" name="LFXCEPS"> F  </i>
   <i type="logical" name="LFXHEG"> F  </i>
   <i type="int" name="NATURALO">     0</i>
   <i type="logical" name="L2ORDER"> F  </i>
   <i type="logical" name="LUSEW"> F  </i>
   <i name="ENCUTGW">     -2.00000000</i>
   <i name="ENCUTGWSOFT">     -2.00000000</i>
   <i name="ENCUTLF">     -1.00000000</i>
   <i type="int" name="LMAXMP2">    -1</i>
   <i name="SCISSOR">      0.00000000</i>
   <i type="int" name="NOMEGA">     0</i>
   <i type="int" name="NOMEGAR">     0</i>
   <i type="int" name="NBANDSGW">    -1</i>
   <i type="int" name="NBANDSO">    -1</i>
   <i type="int" name="NBANDSV">    -1</i>
   <i type="int" name="NELM">    60</i>
   <i type="int" name="NELMHF">     1</i>
   <i type="int" name="DIM">     3</i>
   <i type="int" name="ANTIRES">     0</i>
   <i name="OMEGAMAX">    -30.00000000</i>
   <i name="OMEGAMIN">    -30.00000000</i>
   <i name="OMEGATL">   -200.00000000</i>
   <i type="int" name="OMEGAGRID">     0</i>
   <i name="CSHIFT">     -0.10000000</i>
   <i type="logical" name="SELFENERGY"> F  </i>
   <i type="logical" name="LSPECTRAL"> F  </i>
   <i type="logical" name="LSPECTRALGW"> F  </i>
   <i type="logical" name="LSINGLES"> F  </i>
   <i type="logical" name="LFERMIGW"> F  </i>
   <i type="logical" name="ODDONLYGW"> F  </i>
   <i type="logical" name="EVENONLYGW"> F  </i>
   <i type="int" name="NKREDLFX">     1</i>
   <i type="int" name="NKREDLFY">     1</i>
   <i type="int" name="NKREDLFZ">     1</i>
   <i type="int" name="MAXMEM">  1800</i>
   <i type="int" name="TELESCOPE">     0</i>
   <i type="int" name="TAUPAR">     1</i>
   <i type="int" name="OMEGAPAR">    -1</i>
   <i name="LAMBDA">      1.00000000</i>
  </separator>
  <separator name="External order field" >
   <i name="OFIELD_KAPPA">      0.00000000</i>
   <v name="OFIELD_K">      0.00000000      0.00000000      0.00000000</v>
   <i name="OFIELD_Q6_NEAR">      0.00000000</i>
   <i name="OFIELD_Q6_FAR">      0.00000000</i>
   <i name="OFIELD_A">      0.00000000</i>
  </separator>
 </parameters>
 <atominfo>
  <atoms>       8 </atoms>
  <types>       1 </types>
  <array name="atoms" >
   <dimension dim="1">ion</dimension>
   <field type="string">element</field>
   <field type="int">atomtype</field>
   <set>
    <rc><c>Si</c><c>   1</c></rc>
    <rc><c>Si</c><c>   1</c></rc>
    <rc><c>Si</c><c>   1</c></rc>
    <rc><c>Si</c><c>   1</c></rc>
    <rc><c>Si</c><c>   1</c></rc>
    <rc><c>Si</c><c>   1</c></rc>
    <rc><c>Si</c><c>   1</c></rc>
    <rc><c>Si</c><c>   1</c></rc>
   </set>
  </array>
  <array name="atomtypes" >
   <dimension dim="1">type</dimension>
   <field type="int">atomspertype</field>
   <field type="string">element</field>
   <field>mass</field>
   <field>valence</field>
   <field type="string">pseudopotential</field>
   <set>
    <rc><c>   8</c><c>Si</c><c>     28.08500000</c><c>      4.00000000</c><c>  PAW_PBE Si 05Jan2001                  </c></rc>
   </set>
  </array>
 </atominfo>
 <structure name="initialpos" >
  <crystal>
   <varray name="basis" >
    <v>       5.43100000       0.00000000       0.00000000 </v>
    <v>       0.00000000       5.43100000       0.00000000 </v>
    <v>       0.00000000       0.00000000       5.43100000 </v>
   </varray>
   <i name="volume">    160.19147799 </i>
   <varray name="rec_basis" >
    <v>       0.18412815       0.00000000       0.00000000 </v>
    <v>       0.00000000       0.18412815       0.00000000 </v>
    <v>       0.00000000       0.00000000       0.18412815 </v>
   </varray>
  </crystal>
  <varray name="positions" >
   <v>       0.00000000       0.00000000       0.00000000 </v>
   <v>       0.00000000       0.50000000       0.50000000 </v>
   <v>       0.50000000       0.00000000       0.50000000 </v>
   <v>       0.50000000       0.50000000       0.00000000 </v>
   <v>       0.25000000       0.25000000       0.25000000 </v>
   <v>       0.75000000       0.75000000       0.25000000 </v>
   <v>       0.75000000       0.25000000       0.75000000 </v>
   <v>       0.25000000       0.75000000       0.75000000 </v>
  </varray>
 </structure>
 <calculation>
  <scstep>
   <time name="dav">    1.08    1.09</time>
   <time name="total">    1.10    1.11</time>
   <energy>
    <i name="alphaZ">     13.44915721 </i>
    <i name="ewald">   -914.08579262 </i>
    <i name="hartreedc">    -44.03749844 </i>
    <i name="XCdc">    -74.41615803 </i>
    <i name="pawpsdc">    704.99039692 </i>
    <i name="pawaedc">   -564.24414232 </i>
    <i name="eentropy">     -0.00682473 </i>
    <i name="bandstr">    127.24484954 </i>
    <i name="atom">    824.53247641 </i>
    <i name="e_fr_energy">     73.42646394 </i>
    <i name="e_wo_entrp">     73.43328867 </i>
    <i name="e_0_energy">     73.42987630 </i>
   </energy>
  </scstep>
  <scstep>
   <time name="dav">    1.01    1.02</time>
   <time name="total">    1.01    1.03</time>
   <energy>
    <i name="e_fr_energy">    -38.87662822 </i>
    <i name="e_wo_entrp">    -38.87658318 </i>
    <i name="e_0_energy">    -38.87660570 </i>
   </energy>
  </scstep>
  <scstep>
   <time name="dav">    1.05    1.06</time>
   <time name="total">    1.13    1.14</time>
   <energy>
    <i name="e_fr_energy">    -44.03155361 </i>
    <i name="e_wo_entrp">    -44.03155361 </i>
    <i name="e_0_energy">    -44.03155361 </i>
   </energy>
  </scstep>
  <scstep>
   <time name="dav">    1.03    1.04</time>
   <time name="total">    1.12    1.13</time>
   <energy>
    <i name="e_fr_energy">    -43.60637071 </i>
    <i name="e_wo_entrp">    -43.60637071 </i>
    <i name="e_0_energy">    -43.60637071 </i>
   </energy>
  </scstep>
  <scstep>
   <time name="dav">    1.11    1.14</time>
   <time name="total">    1.21    1.24</time>
   <energy>
    <i name="e_fr_energy">    -43.37217389 </i>
    <i name="e_wo_entrp">    -43.37217367 </i>
    <i name="e_0_energy">    -43.37217378 </i>
   </energy>
  </scstep>
  <scstep>
   <time name="dav">    1.06    1.06</time>
   <time name="total">    1.14    1.15</time>
   <energy>
    <i name="e_fr_energy">    -43.37790433 </i>
    <i name="e_wo_entrp">    -43.37790412 </i>
    <i name="e_0_energy">    -43.37790422 </i>
   </energy>
  </scstep>
  <scstep>
   <time name="dav">    1.06    1.07</time>
   <time name="total">    1.17    1.18</time>
   <energy>
    <i name="e_fr_energy">    -43.38027205 </i>
    <i name="e_wo_entrp">    -43.38027193 </i>
    <i name="e_0_energy">    -43.38027199 </i>
   </energy>
  </scstep>
  <scstep>
   <time name="dav">    0.97    0.99</time>
   <time name="total">    0.98    1.02</time>
   <energy>
    <i name="alphaZ">     13.44915721 </i>
    <i name="ewald">   -914.08579262 </i>
    <i name="hartreedc">    -59.63908484 </i>
    <i name="XCdc">    -71.86966282 </i>
    <i name="pawpsdc">   3503.96037641 </i>
    <i name="pawaedc">  -3364.10640178 </i>
    <i name="eentropy">     -0.00000013 </i>
    <i name="bandstr">     24.37864363 </i>
    <i name="atom">    824.53247641 </i>
    <i name="e_fr_energy">    -43.38028852 </i>
    <i name="e_wo_entrp">    -43.38028839 </i>
    <i name="e_0_energy">    -43.38028845 </i>
   </energy>
  </scstep>
  <structure>
   <crystal>
    <varray name="basis" >
     <v>       5.43100000       0.00000000       0.00000000 </v>
     <v>       0.00000000       5.43100000       0.00000000 </v>
     <v>       0.00000000       0.00000000       5.43100000 </v>
    </varray>
    <i name="volume">    160.19147799 </i>
    <varray name="rec_basis" >
     <v>       0.18412815       0.00000000       0.00000000 </v>
     <v>       0.00000000       0.18412815       0.00000000 </v>
     <v>       0.00000000       0.00000000       0.18412815 </v>
    </varray>
   </crystal>
   <varray name="positions" >
    <v>       0.00000000       0.00000000       0.00000000 </v>
    <v>       0.00000000       0.50000000       0.50000000 </v>
    <v>       0.50000000       0.00000000       0.50000000 </v>
    <v>       0.50000000       0.50000000       0.00000000 </v>
    <v>       0.25000000       0.25000000       0.25000000 </v>
    <v>       0.75000000       0.75000000       0.25000000 </v>
    <v>       0.75000000       0.25000000       0.75000000 </v>
    <v>       0.25000000       0.75000000       0.75000000 </v>
   </varray>
  </structure>
  <varray name="forces" >
   <v>      -0.00000000      -0.00000000       0.00000000 </v>
   <v>      -0.00000000      -0.00000000       0.00000000 </v>
   <v>      -0.00000000       0.00000000      -0.00000000 </v>
   <v>      -0.00000000      -0.00000000      -0.00000000 </v>
   <v>       0.00000000       0.00000000       0.00000000 </v>
   <v>       0.00000000       0.00000000      -0.00000000 </v>
   <v>       0.00000000       0.00000000      -0.00000000 </v>
   <v>       0.00000000      -0.00000000       0.00000000 </v>
  </varray>
  <varray name="stress" >
   <v>      19.59058406       0.00000000      -0.00000000 </v>
   <v>       0.00000000      19.59058406       0.00000000 </v>
   <v>      -0.00000000       0.00000000      19.59058406 </v>
  </varray>
  <energy>
   <i name="e_fr_energy">    -43.38028852 </i>
   <i name="e_wo_entrp">    -43.38028845 </i>
   <i name="e_0_energy">     -0.00000013 </i>
  </energy>
  <time name="totalsc">   10.29   10.54</time>
 </calculation>
 <calculation>
  <scstep>
   <time name="dav">    1.04    1.10</time>
   <time name="total">    1.05    1.13</time>
   <energy>
    <i name="alphaZ">     12.53932352 </i>
    <i name="ewald">   -892.99008734 </i>
    <i name="hartreedc">    -58.31428025 </i>
    <i name="XCdc">    -73.24011603 </i>
    <i name="pawpsdc">   3468.93159901 </i>
    <i name="pawaedc">  -3329.07994578 </i>
    <i name="eentropy">     -0.00000000 </i>
    <i name="bandstr">      4.22439755 </i>
    <i name="atom">    824.53247641 </i>
    <i name="e_fr_energy">    -43.39663290 </i>
    <i name="e_wo_entrp">    -43.39663290 </i>
    <i name="e_0_energy">    -43.39663290 </i>
   </energy>
  </scstep>
  <scstep>
   <time name="dav">    1.02    1.02</time>
   <time name="total">    1.02    1.02</time>
   <energy>
    <i name="e_fr_energy">    -43.40439756 </i>
    <i name="e_wo_entrp">    -43.40439756 </i>
    <i name="e_0_energy">    -43.40439756 </i>
   </energy>
  </scstep>
  <scstep>
   <time name="dav">    1.02    1.02</time>
   <time name="total">    1.09    1.10</time>
   <energy>
    <i name="e_fr_energy">    -43.40448437 </i>
    <i name="e_wo_entrp">    -43.40448437 </i>
    <i name="e_0_energy">    -43.40448437 </i>
   </energy>
  </scstep>
  <scstep>
   <time name="dav">    0.88    0.88</time>
   <time name="total">    0.96    0.97</time>
   <energy>
    <i name="e_fr_energy">    -43.33082535 </i>
    <i name="e_wo_entrp">    -43.33082535 </i>
    <i name="e_0_energy">    -43.33082535 </i>
   </energy>
  </scstep>
  <scstep>
   <time name="dav">    0.95    0.95</time>
   <time name="total">    1.03    1.04</time>
   <energy>
    <i name="e_fr_energy">    -43.29417651 </i>
    <i name="e_wo_entrp">    -43.29417651 </i>
    <i name="e_0_energy">    -43.29417651 </i>
   </energy>
  </scstep>
  <scstep>
   <time name="dav">    0.96    0.96</time>
   <time name="total">    1.04    1.05</time>
   <energy>
    <i name="e_fr_energy">    -43.29398466 </i>
    <i name="e_wo_entrp">    -43.29398466 </i>
    <i name="e_0_energy">    -43.29398466 </i>
   </energy>
  </scstep>
  <scstep>
   <time name="dav">    1.11    1.12</time>
   <time name="total">    1.12    1.14</time>
   <energy>
    <i name="alphaZ">     12.53932352 </i>
    <i name="ewald">   -892.99008734 </i>
    <i name="hartreedc">    -63.06946499 </i>
    <i name="XCdc">    -73.13607866 </i>
    <i name="pawpsdc">   2954.50015947 </i>
    <i name="pawaedc">  -2814.41144464 </i>
    <i name="eentropy">     -0.00000000 </i>
    <i name="bandstr">      8.74121270 </i>
    <i name="atom">    824.53247641 </i>
    <i name="e_fr_energy">    -43.29390353 </i>
    <i name="e_wo_entrp">    -43.29390353 </i>
    <i name="e_0_energy">    -43.29390353 </i>
   </energy>
  </scstep>
  <structure>
   <crystal>
    <varray name="basis" >
     <v>       5.55930016       0.00000000      -0.00000000 </v>
     <v>       0.00000000       5.55930016       0.00000000 </v>
     <v>      -0.00000000       0.00000000       5.55930016 </v>
    </varray>
    <i name="volume">    171.81472089 </i>
    <varray name="rec_basis" >
     <v>       0.17987876      -0.00000000       0.00000000 </v>
     <v>      -0.00000000       0.17987876      -0.00000000 </v>
     <v>       0.00000000      -0.00000000       0.17987876 </v>
    </varray>
   </crystal>
   <varray name="positions" >
    <v>      -0.00000000      -0.00000000       0.00000000 </v>
    <v>      -0.00000000       0.50000000       0.50000000 </v>
    <v>       0.50000000       0.00000000       0.50000000 </v>
    <v>       0.50000000       0.50000000      -0.00000000 </v>
    <v>       0.25000000       0.25000000       0.25000000 </v>
    <v>       0.75000000       0.75000000       0.25000000 </v>
    <v>       0.75000000       0.25000000       0.75000000 </v>
    <v>       0.25000000       0.75000000       0.75000000 </v>
   </varray>
  </structure>
  <varray name="forces" >
   <v>       0.00000000      -0.00000000       0.00000000 </v>
   <v>       0.00000000      -0.00000000      -0.00000000 </v>
   <v>       0.00000000       0.00000000       0.00000000 </v>
   <v>       0.00000000       0.00000000       0.00000000 </v>
   <v>      -0.00000000      -0.00000000      -0.00000000 </v>
   <v>      -0.00000000       0.00000000      -0.00000000 </v>
   <v>      -0.00000000       0.00000000       0.00000000 </v>
   <v>      -0.00000000      -0.00000000      -0.00000000 </v>
  </varray>
  <varray name="stress" >
   <v>     -39.45071671       0.00000000       0.00000000 </v>
   <v>      -0.00000000     -39.45071671       0.00000000 </v>
   <v>       0.00000000      -0.00000000     -39.45071671 </v>
  </varray>
  <energy>
   <i name="e_fr_energy">    -43.29390353 </i>
   <i name="e_wo_entrp">    -43.29390353 </i>
   <i name="e_0_energy">     -0.00000000 </i>
  </energy>
  <time name="totalsc">    7.91    8.06</time>
 </calculation>
 <calculation>
  <scstep>
   <time name="dav">    1.02    1.02</time>
   <time name="total">    1.03    1.04</time>
   <energy>
    <i name="alphaZ">     13.16759352 </i>
    <i name="ewald">   -907.66183066 </i>
    <i name="hartreedc">    -64.11939389 </i>
    <i name="XCdc">    -72.19108158 </i>
    <i name="pawpsdc">   2984.71427040 </i>
    <i name="pawaedc">  -2844.63188522 </i>
    <i name="eentropy">     -0.00000039 </i>
    <i name="bandstr">     22.73967996 </i>
    <i name="atom">    824.53247641 </i>
    <i name="e_fr_energy">    -43.45017144 </i>
    <i name="e_wo_entrp">    -43.45017105 </i>
    <i name="e_0_energy">    -43.45017124 </i>
   </energy>
  </scstep>
  <scstep>
   <time name="dav">    1.03    1.05</time>
   <time name="total">    1.03    1.05</time>
   <energy>
    <i name="e_fr_energy">    -43.45500456 </i>
    <i name="e_wo_entrp">    -43.45500417 </i>
    <i name="e_0_energy">    -43.45500436 </i>
   </energy>
  </scstep>
  <scstep>
   <time name="dav">    1.03    1.13</time>
   <time name="total">    1.10    1.21</time>
   <energy>
    <i name="e_fr_energy">    -43.45504076 </i>
    <i name="e_wo_entrp">    -43.45504038 </i>
    <i name="e_0_energy">    -43.45504057 </i>
   </energy>
  </scstep>
  <scstep>
   <time name="dav">    0.86    0.87</time>
   <time name="total">    0.95    0.96</time>
   <energy>
    <i name="e_fr_energy">    -43.41832003 </i>
    <i name="e_wo_entrp">    -43.41831989 </i>
    <i name="e_0_energy">    -43.41831996 </i>
   </energy>
  </scstep>
  <scstep>
   <time name="dav">    0.93    0.94</time>
   <time name="total">    1.02    1.02</time>
   <energy>
    <i name="e_fr_energy">    -43.40024118 </i>
    <i name="e_wo_entrp">    -43.40024114 </i>
    <i name="e_0_energy">    -43.40024116 </i>
   </energy>
  </scstep>
  <scstep>
   <time name="dav">    1.02    1.03</time>
   <time name="total">    1.10    1.12</time>
   <energy>
    <i name="e_fr_energy">    -43.40022368 </i>
    <i name="e_wo_entrp">    -43.40022364 </i>
    <i name="e_0_energy">    -43.40022366 </i>
   </energy>
  </scstep>
  <scstep>
   <time name="dav">    0.75    0.75</time>
   <time name="total">    0.76    0.77</time>
   <energy>
    <i name="alphaZ">     13.16759352 </i>
    <i name="ewald">   -907.66183066 </i>
    <i name="hartreedc">    -60.69701575 </i>
    <i name="XCdc">    -72.25077803 </i>
    <i name="pawpsdc">   3327.67597000 </i>
    <i name="pawaedc">  -3187.75184346 </i>
    <i name="eentropy">     -0.00000004 </i>
    <i name="bandstr">     19.58527870 </i>
    <i name="atom">    824.53247641 </i>
    <i name="e_fr_energy">    -43.40014930 </i>
    <i name="e_wo_entrp">    -43.40014926 </i>
    <i name="e_0_energy">    -43.40014928 </i>
   </energy>
  </scstep>
  <structure>
   <crystal>
    <varray name="basis" >
     <v>       5.46943781       0.00000000      -0.00000000 </v>
     <v>       0.00000000       5.46943781       0.00000000 </v>
     <v>      -0.00000000       0.00000000       5.46943781 </v>
    </varray>
    <i name="volume">    163.61686493 </i>
    <varray name="rec_basis" >
     <v>       0.18283415      -0.00000000       0.00000000 </v>
     <v>      -0.00000000       0.18283415      -0.00000000 </v>
     <v>       0.00000000      -0.00000000       0.18283415 </v>
    </varray>
   </crystal>
   <varray name="positions" >
    <v>      -0.00000000      -0.00000000       0.00000000 </v>
    <v>      -0.00000000       0.50000000       0.50000000 </v>
    <v>       0.50000000       0.00000000       0.50000000 </v>
    <v>       0.50000000       0.50000000      -0.00000000 </v>
    <v>       0.25000000       0.25000000       0.25000000 </v>
    <v>       0.75000000       0.75000000       0.25000000 </v>
    <v>       0.75000000       0.25000000       0.75000000 </v>
    <v>       0.25000000       0.75000000       0.75000000 </v>
   </varray>
  </structure>
  <varray name="forces" >
   <v>       0.00000000      -0.00000000       0.00000000 </v>
   <v>       0.00000000      -0.00000000       0.00000000 </v>
   <v>       0.00000000       0.00000000       0.00000000 </v>
   <v>       0.00000000      -0.00000000       0.00000000 </v>
   <v>      -0.00000000       0.00000000      -0.00000000 </v>
   <v>       0.00000000       0.00000000      -0.00000000 </v>
   <v>      -0.00000000       0.00000000      -0.00000000 </v>
   <v>      -0.00000000       0.00000000      -0.00000000 </v>
  </varray>
  <varray name="stress" >
   <v>      -0.27885325       0.00000000       0.00000000 </v>
   <v>      -0.00000000      -0.27885325       0.00000000 </v>
   <v>      -0.00000000      -0.00000000      -0.27885325 </v>
  </varray>
  <energy>
   <i name="e_fr_energy">    -43.40014930 </i>
   <i name="e_wo_entrp">    -43.40014928 </i>
   <i name="e_0_energy">     -0.00000004 </i>
  </energy>
  <time name="totalsc">    7.75    8.02</time>
  <eigenvalues>
   <array>
    <dimension dim="1">band</dimension>
    <dimension dim="2">kpoint</dimension>
    <dimension dim="3">spin</dimension>
    <field>eigene</field>
    <field>occ</field>
    <set>
     <set comment="spin 1">
      <set comment="kpoint 1">
       <r>   -6.2001    1.0000 </r>
       <r>   -2.1331    1.0000 </r>
       <r>   -2.1331    1.0000 </r>
       <r>   -2.1331    1.0000 </r>
       <r>   -2.1331    1.0000 </r>
       <r>   -2.1331    1.0000 </r>
       <r>   -2.1331    1.0000 </r>
       <r>    2.8188    1.0000 </r>
       <r>    2.8188    1.0000 </r>
       <r>    2.8188    1.0000 </r>
       <r>    2.8188    1.0000 </r>
       <r>    2.8188    1.0000 </r>
       <r>    2.8188    1.0000 </r>
       <r>    5.6117    1.0000 </r>
       <r>    5.6117    1.0000 </r>
       <r>    5.6117    1.0000 </r>
       <r>    6.3648    0.0000 </r>
       <r>    6.3648    0.0000 </r>
       <r>    6.3648    0.0000 </r>
       <r>    6.3648    0.0000 </r>
       <r>    6.3648    0.0000 </r>
       <r>    6.3648    0.0000 </r>
       <r>    8.1686    0.0000 </r>
       <r>    8.1686    0.0000 </r>
       <r>    8.1686    0.0000 </r>
      </set>
      <set comment="kpoint 2">
       <r>   -6.1646    1.0000 </r>
       <r>   -2.8011    1.0000 </r>
       <r>   -2.1219    1.0000 </r>
       <r>   -2.1219    1.0000 </r>
       <r>   -2.1219    1.0000 </r>
       <r>   -2.1219    1.0000 </r>
       <r>   -1.4228    1.0000 </r>
       <r>    2.7184    1.0000 </r>
       <r>    2.7184    1.0000 </r>
       <r>    2.7184    1.0000 </r>
       <r>    2.7184    1.0000 </r>
       <r>    2.8509    1.0000 </r>
       <r>    2.8509    1.0000 </r>
       <r>    5.3696    1.0000 </r>
       <r>    5.4688    1.0000 </r>
       <r>    5.4688    1.0000 </r>
       <r>    6.2495    0.0000 </r>
       <r>    6.5555    0.0000 </r>
       <r>    6.5555    0.0000 </r>
       <r>    6.5555    0.0000 </r>
       <r>    6.5555    0.0000 </r>
       <r>    6.5763    0.0000 </r>
       <r>    8.0826    0.0000 </r>
       <r>    8.3553    0.0000 </r>
       <r>    8.3553    0.0000 </r>
      </set>
      <set comment="kpoint 3">
       <r>   -6.0582    1.0000 </r>
       <r>   -3.4205    1.0000 </r>
       <r>   -2.0908    1.0000 </r>
       <r>   -2.0908    1.0000 </r>
       <r>   -2.0908    1.0000 </r>
       <r>   -2.0908    1.0000 </r>
       <r>   -0.6773    1.0000 </r>
       <r>    2.4787    1.0000 </r>
       <r>    2.4787    1.0000 </r>
       <r>    2.4787    1.0000 </r>
       <r>    2.4787    1.0000 </r>
       <r>    2.9469    1.0000 </r>
       <r>    2.9469    1.0000 </r>
       <r>    4.7924    1.0000 </r>
       <r>    5.1296    1.0000 </r>
       <r>    5.1296    1.0000 </r>
       <r>    6.2253    0.0000 </r>
       <r>    6.8880    0.0000 </r>
       <r>    7.0676    0.0000 </r>
       <r>    7.0676    0.0000 </r>
       <r>    7.0676    0.0000 </r>
       <r>    7.0676    0.0000 </r>
       <r>    7.8544    0.0000 </r>
       <r>    8.8251    0.0000 </r>
       <r>    8.8251    0.0000 </r>
      </set>
      <set comment="kpoint 4">
       <r>   -5.8814    1.0000 </r>
       <r>   -3.9860    1.0000 </r>
       <r>   -2.0484    1.0000 </r>
       <r>   -2.0484    1.0000 </r>
       <r>   -2.0484    1.0000 </r>
       <r>   -2.0484    1.0000 </r>
       <r>    0.0956    1.0000 </r>
       <r>    2.2090    1.0000 </r>
       <r>    2.2090    1.0000 </r>
       <r>    2.2090    1.0000 </r>
       <r>    2.2090    1.0000 </r>
       <r>    3.1058    1.0000 </r>
       <r>    3.1058    1.0000 </r>
       <r>    4.0717    1.0000 </r>
       <r>    4.7219    1.0000 </r>
       <r>    4.7219    1.0000 </r>
       <r>    6.2864    0.0000 </r>
       <r>    7.3022    0.0000 </r>
       <r>    7.5469    0.0000 </r>
       <r>    7.7966    0.0000 </r>
       <r>    7.7966    0.0000 </r>
       <r>    7.7966    0.0000 </r>
       <r>    7.7966    0.0000 </r>
       <r>    9.4485    0.0000 </r>
       <r>    9.4485    0.0000 </r>
      </set>
      <set comment="kpoint 5">
       <r>   -5.6350    1.0000 </r>
       <r>   -4.4934    1.0000 </r>
       <r>   -2.0075    1.0000 </r>
       <r>   -2.0075    1.0000 </r>
       <r>   -2.0075    1.0000 </r>
       <r>   -2.0075    1.0000 </r>
       <r>    0.8875    1.0000 </r>
       <r>    1.9896    1.0000 </r>
       <r>    1.9896    1.0000 </r>
       <r>    1.9896    1.0000 </r>
       <r>    1.9896    1.0000 </r>
       <r>    3.2948    1.0000 </r>
       <r>    3.3259    1.0000 </r>
       <r>    3.3259    1.0000 </r>
       <r>    4.3139    1.0000 </r>
       <r>    4.3139    1.0000 </r>
       <r>    6.4262    0.0000 </r>
       <r>    7.2173    0.0000 </r>
       <r>    7.8169    0.0000 </r>
       <r>    8.6653    0.0000 </r>
       <r>    8.6653    0.0000 </r>
       <r>    8.6653    0.0000 </r>
       <r>    8.6653    0.0000 </r>
       <r>    9.6844    0.0000 </r>
       <r>   10.1545    0.0000 </r>
      </set>
      <set comment="kpoint 6">
       <r>   -5.3204    1.0000 </r>
       <r>   -4.9391    1.0000 </r>
       <r>   -1.9822    1.0000 </r>
       <r>   -1.9822    1.0000 </r>
       <r>   -1.9822    1.0000 </r>
       <r>   -1.9822    1.0000 </r>
       <r>    1.6904    1.0000 </r>
       <r>    1.8684    1.0000 </r>
       <r>    1.8684    1.0000 </r>
       <r>    1.8684    1.0000 </r>
       <r>    1.8684    1.0000 </r>
       <r>    2.4959    1.0000 </r>
       <r>    3.6043    1.0000 </r>
       <r>    3.6043    1.0000 </r>
       <r>    3.9363    1.0000 </r>
       <r>    3.9363    1.0000 </r>
       <r>    6.6362    0.0000 </r>
       <r>    6.9054    0.0000 </r>
       <r>    8.4213    0.0000 </r>
       <r>    9.0811    0.0000 </r>
       <r>    9.5934    0.0000 </r>
       <r>    9.5934    0.0000 </r>
       <r>    9.5934    0.0000 </r>
       <r>    9.5934    0.0000 </r>
       <r>   10.8493    0.0000 </r>
      </set>
      <set comment="kpoint 7">
       <r>   -6.1292    1.0000 </r>
       <r>   -2.7828    1.0000 </r>
       <r>   -2.7828    1.0000 </r>
       <r>   -2.1679    1.0000 </r>
       <r>   -2.0560    1.0000 </r>
       <r>   -1.4215    1.0000 </r>
       <r>   -1.4215    1.0000 </r>
       <r>    2.4208    1.0000 </r>
       <r>    2.7353    1.0000 </r>
       <r>    2.7353    1.0000 </r>
       <r>    2.7698    1.0000 </r>
       <r>    2.7698    1.0000 </r>
       <r>    2.8755    1.0000 </r>
       <r>    4.9769    1.0000 </r>
       <r>    5.3256    1.0000 </r>
       <r>    5.5792    1.0000 </r>
       <r>    6.4301    0.0000 </r>
       <r>    6.4487    0.0000 </r>
       <r>    6.4487    0.0000 </r>
       <r>    6.7566    0.0000 </r>
       <r>    6.7566    0.0000 </r>
       <r>    7.0040    0.0000 </r>
       <r>    8.2418    0.0000 </r>
       <r>    8.3013    0.0000 </r>
       <r>    8.3524    0.0000 </r>
      </set>
      <set comment="kpoint 8">
       <r>   -6.0230    1.0000 </r>
       <r>   -3.3971    1.0000 </r>
       <r>   -2.7299    1.0000 </r>
       <r>   -2.2021    1.0000 </r>
       <r>   -1.9676    1.0000 </r>
       <r>   -1.4213    1.0000 </r>
       <r>   -0.6903    1.0000 </r>
       <r>    2.0925    1.0000 </r>
       <r>    2.4589    1.0000 </r>
       <r>    2.5789    1.0000 </r>
       <r>    2.8197    1.0000 </r>
       <r>    2.8320    1.0000 </r>
       <r>    2.8904    1.0000 </r>
       <r>    4.4000    1.0000 </r>
       <r>    4.9853    1.0000 </r>
       <r>    5.3781    1.0000 </r>
       <r>    6.4309    0.0000 </r>
       <r>    6.6845    0.0000 </r>
       <r>    6.9770    0.0000 </r>
       <r>    7.0564    0.0000 </r>
       <r>    7.2477    0.0000 </r>
       <r>    7.6730    0.0000 </r>
       <r>    8.0456    0.0000 </r>
       <r>    8.6054    0.0000 </r>
       <r>    8.7513    0.0000 </r>
      </set>
      <set comment="kpoint 9">
       <r>   -5.8467    1.0000 </r>
       <r>   -3.9590    1.0000 </r>
       <r>   -2.6486    1.0000 </r>
       <r>   -2.2365    1.0000 </r>
       <r>   -1.8600    1.0000 </r>
       <r>   -1.4319    1.0000 </r>
       <r>    0.0620    1.0000 </r>
       <r>    1.8150    1.0000 </r>
       <r>    2.1394    1.0000 </r>
       <r>    2.3754    1.0000 </r>
       <r>    2.6497    1.0000 </r>
       <r>    2.9701    1.0000 </r>
       <r>    3.0802    1.0000 </r>
       <r>    3.7522    1.0000 </r>
       <r>    4.5760    1.0000 </r>
       <r>    4.9664    1.0000 </r>
       <r>    6.4964    0.0000 </r>
       <r>    7.2559    0.0000 </r>
       <r>    7.4574    0.0000 </r>
       <r>    7.7198    0.0000 </r>
       <r>    7.7459    0.0000 </r>
       <r>    7.9572    0.0000 </r>
       <r>    8.4889    0.0000 </r>
       <r>    9.0998    0.0000 </r>
       <r>    9.3832    0.0000 </r>
      </set>
      <set comment="kpoint 10">
       <r>   -5.6011    1.0000 </r>
       <r>   -4.4638    1.0000 </r>
       <r>   -2.5495    1.0000 </r>
       <r>   -2.2846    1.0000 </r>
       <r>   -1.7420    1.0000 </r>
       <r>   -1.4659    1.0000 </r>
       <r>    0.8245    1.0000 </r>
       <r>    1.6376    1.0000 </r>
       <r>    1.8583    1.0000 </r>
       <r>    2.2345    1.0000 </r>
       <r>    2.4363    1.0000 </r>
       <r>    3.0599    1.0000 </r>
       <r>    3.1843    1.0000 </r>
       <r>    3.3393    1.0000 </r>
       <r>    4.1668    1.0000 </r>
       <r>    4.5006    1.0000 </r>
       <r>    6.6383    0.0000 </r>
       <r>    7.4227    0.0000 </r>
       <r>    7.9582    0.0000 </r>
       <r>    8.0382    0.0000 </r>
       <r>    8.5991    0.0000 </r>
       <r>    8.8083    0.0000 </r>
       <r>    9.4012    0.0000 </r>
       <r>    9.5563    0.0000 </r>
       <r>   10.1005    0.0000 </r>
      </set>
      <set comment="kpoint 11">
       <r>   -5.2875    1.0000 </r>
       <r>   -4.9076    1.0000 </r>
       <r>   -2.4466    1.0000 </r>
       <r>   -2.3549    1.0000 </r>
       <r>   -1.6274    1.0000 </r>
       <r>   -1.5315    1.0000 </r>
       <r>    1.5857    1.0000 </r>
       <r>    1.5859    1.0000 </r>
       <r>    1.6639    1.0000 </r>
       <r>    2.1965    1.0000 </r>
       <r>    2.2701    1.0000 </r>
       <r>    2.3345    1.0000 </r>
       <r>    3.4591    1.0000 </r>
       <r>    3.6662    1.0000 </r>
       <r>    3.7894    1.0000 </r>
       <r>    4.0571    1.0000 </r>
       <r>    6.8483    0.0000 </r>
       <r>    7.1152    0.0000 </r>
       <r>    8.5472    0.0000 </r>
       <r>    8.9462    0.0000 </r>
       <r>    9.1802    0.0000 </r>
       <r>    9.5590    0.0000 </r>
       <r>    9.6108    0.0000 </r>
       <r>   10.2210    0.0000 </r>
       <r>   10.2389    0.0000 </r>
      </set>
      <set comment="kpoint 12">
       <r>   -5.9177    1.0000 </r>
       <r>   -3.3285    1.0000 </r>
       <r>   -3.3285    1.0000 </r>
       <r>   -2.3130    1.0000 </r>
       <r>   -1.8248    1.0000 </r>
       <r>   -0.7330    1.0000 </r>
       <r>   -0.7330    1.0000 </r>
       <r>    1.7558    1.0000 </r>
       <r>    2.5159    1.0000 </r>
       <r>    2.5159    1.0000 </r>
       <r>    2.7624    1.0000 </r>
       <r>    2.7624    1.0000 </r>
       <r>    3.0432    1.0000 </r>
       <r>    3.8236    1.0000 </r>
       <r>    4.6418    1.0000 </r>
       <r>    5.4697    1.0000 </r>
       <r>    6.6234    0.0000 </r>
       <r>    6.9707    0.0000 </r>
       <r>    6.9707    0.0000 </r>
       <r>    7.5220    0.0000 </r>
       <r>    7.5220    0.0000 </r>
       <r>    8.4290    0.0000 </r>
       <r>    8.4610    0.0000 </r>
       <r>    8.4970    0.0000 </r>
       <r>    8.6220    0.0000 </r>
      </set>
      <set comment="kpoint 13">
       <r>   -5.7429    1.0000 </r>
       <r>   -3.8792    1.0000 </r>
       <r>   -3.2192    1.0000 </r>
       <r>   -2.4364    1.0000 </r>
       <r>   -1.6599    1.0000 </r>
       <r>   -0.8135    1.0000 </r>
       <r>   -0.0393    1.0000 </r>
       <r>    1.5190    1.0000 </r>
       <r>    2.1603    1.0000 </r>
       <r>    2.6434    1.0000 </r>
       <r>    2.6466    1.0000 </r>
       <r>    3.0315    1.0000 </r>
       <r>    3.0539    1.0000 </r>
       <r>    3.2165    1.0000 </r>
       <r>    4.2288    1.0000 </r>
       <r>    5.2371    1.0000 </r>
       <r>    6.9369    0.0000 </r>
       <r>    7.0428    0.0000 </r>
       <r>    7.7216    0.0000 </r>
       <r>    7.8938    0.0000 </r>
       <r>    8.2064    0.0000 </r>
       <r>    8.2492    0.0000 </r>
       <r>    8.7249    0.0000 </r>
       <r>    9.2087    0.0000 </r>
       <r>    9.2924    0.0000 </r>
      </set>
      <set comment="kpoint 14">
       <r>   -5.4995    1.0000 </r>
       <r>   -4.3758    1.0000 </r>
       <r>   -3.0768    1.0000 </r>
       <r>   -2.5800    1.0000 </r>
       <r>   -1.4767    1.0000 </r>
       <r>   -0.9369    1.0000 </r>
       <r>    0.6469    1.0000 </r>
       <r>    1.4089    1.0000 </r>
       <r>    1.8333    1.0000 </r>
       <r>    2.5939    1.0000 </r>
       <r>    2.5967    1.0000 </r>
       <r>    2.8474    1.0000 </r>
       <r>    2.9251    1.0000 </r>
       <r>    3.3854    1.0000 </r>
       <r>    3.8173    1.0000 </r>
       <r>    4.8019    1.0000 </r>
       <r>    7.1864    0.0000 </r>
       <r>    7.5602    0.0000 </r>
       <r>    7.9461    0.0000 </r>
       <r>    8.3619    0.0000 </r>
       <r>    8.6052    0.0000 </r>
       <r>    9.0313    0.0000 </r>
       <r>    9.1646    0.0000 </r>
       <r>    9.9513    0.0000 </r>
       <r>   10.2183    0.0000 </r>
      </set>
      <set comment="kpoint 15">
       <r>   -5.1891    1.0000 </r>
       <r>   -4.8136    1.0000 </r>
       <r>   -2.9130    1.0000 </r>
       <r>   -2.7424    1.0000 </r>
       <r>   -1.2846    1.0000 </r>
       <r>   -1.0987    1.0000 </r>
       <r>    1.3160    1.0000 </r>
       <r>    1.4325    1.0000 </r>
       <r>    1.5808    1.0000 </r>
       <r>    1.9649    1.0000 </r>
       <r>    2.6369    1.0000 </r>
       <r>    2.7610    1.0000 </r>
       <r>    3.1140    1.0000 </r>
       <r>    3.4403    1.0000 </r>
       <r>    3.8158    1.0000 </r>
       <r>    4.3019    1.0000 </r>
       <r>    7.3933    0.0000 </r>
       <r>    7.6521    0.0000 </r>
       <r>    8.3853    0.0000 </r>
       <r>    8.9113    0.0000 </r>
       <r>    9.2946    0.0000 </r>
       <r>    9.4100    0.0000 </r>
       <r>    9.5745    0.0000 </r>
       <r>   10.0512    0.0000 </r>
       <r>   10.1208    0.0000 </r>
      </set>
      <set comment="kpoint 16">
       <r>   -5.5707    1.0000 </r>
       <r>   -3.7496    1.0000 </r>
       <r>   -3.7496    1.0000 </r>
       <r>   -2.6552    1.0000 </r>
       <r>   -1.4407    1.0000 </r>
       <r>   -0.2059    1.0000 </r>
       <r>   -0.2059    1.0000 </r>
       <r>    1.3489    1.0000 </r>
       <r>    2.2653    1.0000 </r>
       <r>    2.2653    1.0000 </r>
       <r>    2.6505    1.0000 </r>
       <r>    3.0125    1.0000 </r>
       <r>    3.0125    1.0000 </r>
       <r>    3.3137    1.0000 </r>
       <r>    3.8123    1.0000 </r>
       <r>    5.2587    1.0000 </r>
       <r>    6.9355    0.0000 </r>
       <r>    7.7963    0.0000 </r>
       <r>    7.7963    0.0000 </r>
       <r>    8.5478    0.0000 </r>
       <r>    8.5478    0.0000 </r>
       <r>    8.5959    0.0000 </r>
       <r>    8.8255    0.0000 </r>
       <r>    9.0635    0.0000 </r>
       <r>   10.1797    0.0000 </r>
      </set>
      <set comment="kpoint 17">
       <r>   -5.3313    1.0000 </r>
       <r>   -4.2315    1.0000 </r>
       <r>   -3.5757    1.0000 </r>
       <r>   -2.8911    1.0000 </r>
       <r>   -1.2002    1.0000 </r>
       <r>   -0.4259    1.0000 </r>
       <r>    0.3838    1.0000 </r>
       <r>    1.3132    1.0000 </r>
       <r>    1.9054    1.0000 </r>
       <r>    2.0834    1.0000 </r>
       <r>    2.4485    1.0000 </r>
       <r>    3.0557    1.0000 </r>
       <r>    3.3722    1.0000 </r>
       <r>    3.3995    1.0000 </r>
       <r>    3.4712    1.0000 </r>
       <r>    4.9862    1.0000 </r>
       <r>    7.2994    0.0000 </r>
       <r>    7.9370    0.0000 </r>
       <r>    8.6467    0.0000 </r>
       <r>    8.6781    0.0000 </r>
       <r>    8.7619    0.0000 </r>
       <r>    8.9814    0.0000 </r>
       <r>    9.3282    0.0000 </r>
       <r>    9.7428    0.0000 </r>
       <r>    9.8640    0.0000 </r>
      </set>
      <set comment="kpoint 18">
       <r>   -5.0264    1.0000 </r>
       <r>   -4.6586    1.0000 </r>
       <r>   -3.3663    1.0000 </r>
       <r>   -3.1332    1.0000 </r>
       <r>   -0.9427    1.0000 </r>
       <r>   -0.6788    1.0000 </r>
       <r>    0.9567    1.0000 </r>
       <r>    1.4053    1.0000 </r>
       <r>    1.5203    1.0000 </r>
       <r>    1.6097    1.0000 </r>
       <r>    2.7039    1.0000 </r>
       <r>    3.0243    1.0000 </r>
       <r>    3.1590    1.0000 </r>
       <r>    3.2877    1.0000 </r>
       <r>    3.9914    1.0000 </r>
       <r>    4.5234    1.0000 </r>
       <r>    7.9622    0.0000 </r>
       <r>    8.1350    0.0000 </r>
       <r>    8.3782    0.0000 </r>
       <r>    8.8138    0.0000 </r>
       <r>    9.1333    0.0000 </r>
       <r>    9.4476    0.0000 </r>
       <r>    9.6450    0.0000 </r>
       <r>    9.7297    0.0000 </r>
       <r>   10.1593    0.0000 </r>
      </set>
      <set comment="kpoint 19">
       <r>   -5.0978    1.0000 </r>
       <r>   -4.0349    1.0000 </r>
       <r>   -4.0349    1.0000 </r>
       <r>   -3.2069    1.0000 </r>
       <r>   -0.9056    1.0000 </r>
       <r>    0.0708    1.0000 </r>
       <r>    0.0708    1.0000 </r>
       <r>    1.3455    1.0000 </r>
       <r>    1.5663    1.0000 </r>
       <r>    2.0658    1.0000 </r>
       <r>    2.0658    1.0000 </r>
       <r>    2.9878    1.0000 </r>
       <r>    3.5891    1.0000 </r>
       <r>    3.5891    1.0000 </r>
       <r>    3.6713    1.0000 </r>
       <r>    4.9363    1.0000 </r>
       <r>    7.3467    0.0000 </r>
       <r>    8.5486    0.0000 </r>
       <r>    8.8107    0.0000 </r>
       <r>    8.8107    0.0000 </r>
       <r>    9.2800    0.0000 </r>
       <r>    9.2800    0.0000 </r>
       <r>    9.3338    0.0000 </r>
       <r>    9.6226    0.0000 </r>
       <r>    9.7762    0.0000 </r>
      </set>
      <set comment="kpoint 20">
       <r>   -4.8014    1.0000 </r>
       <r>   -4.4456    1.0000 </r>
       <r>   -3.7921    1.0000 </r>
       <r>   -3.5121    1.0000 </r>
       <r>   -0.5910    1.0000 </r>
       <r>   -0.2614    1.0000 </r>
       <r>    0.5624    1.0000 </r>
       <r>    1.0589    1.0000 </r>
       <r>    1.4930    1.0000 </r>
       <r>    1.7393    1.0000 </r>
       <r>    2.3061    1.0000 </r>
       <r>    2.6172    1.0000 </r>
       <r>    3.7082    1.0000 </r>
       <r>    3.7658    1.0000 </r>
       <r>    4.1406    1.0000 </r>
       <r>    4.6266    1.0000 </r>
       <r>    7.7443    0.0000 </r>
       <r>    8.4252    0.0000 </r>
       <r>    8.5985    0.0000 </r>
       <r>    8.8694    0.0000 </r>
       <r>    8.9933    0.0000 </r>
       <r>    9.2094    0.0000 </r>
       <r>    9.7654    0.0000 </r>
       <r>   10.2447    0.0000 </r>
       <r>   10.3795    0.0000 </r>
      </set>
      <set comment="kpoint 21">
       <r>   -4.5174    1.0000 </r>
       <r>   -4.1788    1.0000 </r>
       <r>   -4.1788    1.0000 </r>
       <r>   -3.8646    1.0000 </r>
       <r>   -0.2225    1.0000 </r>
       <r>    0.1640    1.0000 </r>
       <r>    0.1640    1.0000 </r>
       <r>    0.6040    1.0000 </r>
       <r>    1.6820    1.0000 </r>
       <r>    1.9583    1.0000 </r>
       <r>    1.9583    1.0000 </r>
       <r>    2.2553    1.0000 </r>
       <r>    4.0898    1.0000 </r>
       <r>    4.2005    1.0000 </r>
       <r>    4.2005    1.0000 </r>
       <r>    4.5292    1.0000 </r>
       <r>    7.8164    0.0000 </r>
       <r>    8.2148    0.0000 </r>
       <r>    8.2148    0.0000 </r>
       <r>    8.2621    0.0000 </r>
       <r>    9.9221    0.0000 </r>
       <r>    9.9221    0.0000 </r>
       <r>    9.9834    0.0000 </r>
       <r>   10.3063    0.0000 </r>
       <r>   10.7700    0.0000 </r>
      </set>
      <set comment="kpoint 22">
       <r>   -6.0938    1.0000 </r>
       <r>   -2.7675    1.0000 </r>
       <r>   -2.7675    1.0000 </r>
       <r>   -2.7675    1.0000 </r>
       <r>   -1.4205    1.0000 </r>
       <r>   -1.4205    1.0000 </r>
       <r>   -1.4205    1.0000 </r>
       <r>    2.4614    1.0000 </r>
       <r>    2.4614    1.0000 </r>
       <r>    2.4614    1.0000 </r>
       <r>    2.9073    1.0000 </r>
       <r>    2.9073    1.0000 </r>
       <r>    2.9073    1.0000 </r>
       <r>    4.6268    1.0000 </r>
       <r>    5.4479    1.0000 </r>
       <r>    5.4479    1.0000 </r>
       <r>    6.4429    0.0000 </r>
       <r>    6.4429    0.0000 </r>
       <r>    6.4429    0.0000 </r>
       <r>    7.0845    0.0000 </r>
       <r>    7.0845    0.0000 </r>
       <r>    7.0845    0.0000 </r>
       <r>    8.1578    0.0000 </r>
       <r>    8.4101    0.0000 </r>
       <r>    8.4101    0.0000 </r>
      </set>
      <set comment="kpoint 23">
       <r>   -5.9880    1.0000 </r>
       <r>   -3.3752    1.0000 </r>
       <r>   -2.7246    1.0000 </r>
       <r>   -2.7246    1.0000 </r>
       <r>   -1.4195    1.0000 </r>
       <r>   -1.4195    1.0000 </r>
       <r>   -0.7067    1.0000 </r>
       <r>    2.1408    1.0000 </r>
       <r>    2.1408    1.0000 </r>
       <r>    2.5836    1.0000 </r>
       <r>    2.8681    1.0000 </r>
       <r>    2.8681    1.0000 </r>
       <r>    3.0021    1.0000 </r>
       <r>    4.0637    1.0000 </r>
       <r>    5.1298    1.0000 </r>
       <r>    5.3195    1.0000 </r>
       <r>    6.4938    0.0000 </r>
       <r>    6.7142    0.0000 </r>
       <r>    6.7142    0.0000 </r>
       <r>    7.3126    0.0000 </r>
       <r>    7.7329    0.0000 </r>
       <r>    7.7329    0.0000 </r>
       <r>    8.1243    0.0000 </r>
       <r>    8.4279    0.0000 </r>
       <r>    8.8384    0.0000 </r>
      </set>
      <set comment="kpoint 24">
       <r>   -5.8122    1.0000 </r>
       <r>   -3.9330    1.0000 </r>
       <r>   -2.6641    1.0000 </r>
       <r>   -2.6641    1.0000 </r>
       <r>   -1.4232    1.0000 </r>
       <r>   -1.4232    1.0000 </r>
       <r>    0.0214    1.0000 </r>
       <r>    1.8669    1.0000 </r>
       <r>    1.8669    1.0000 </r>
       <r>    2.7007    1.0000 </r>
       <r>    2.7007    1.0000 </r>
       <r>    2.7884    1.0000 </r>
       <r>    3.1591    1.0000 </r>
       <r>    3.4529    1.0000 </r>
       <r>    4.7398    1.0000 </r>
       <r>    4.9128    1.0000 </r>
       <r>    6.6000    0.0000 </r>
       <r>    7.2888    0.0000 </r>
       <r>    7.2888    0.0000 </r>
       <r>    7.6679    0.0000 </r>
       <r>    7.8871    0.0000 </r>
       <r>    8.5401    0.0000 </r>
       <r>    8.5401    0.0000 </r>
       <r>    8.8503    0.0000 </r>
       <r>    9.4089    0.0000 </r>
      </set>
      <set comment="kpoint 25">
       <r>   -5.5673    1.0000 </r>
       <r>   -4.4348    1.0000 </r>
       <r>   -2.6030    1.0000 </r>
       <r>   -2.6030    1.0000 </r>
       <r>   -1.4333    1.0000 </r>
       <r>   -1.4333    1.0000 </r>
       <r>    0.7497    1.0000 </r>
       <r>    1.6794    1.0000 </r>
       <r>    1.6794    1.0000 </r>
       <r>    2.5165    1.0000 </r>
       <r>    2.5165    1.0000 </r>
       <r>    2.8166    1.0000 </r>
       <r>    3.0772    1.0000 </r>
       <r>    3.3761    1.0000 </r>
       <r>    4.3445    1.0000 </r>
       <r>    4.4034    1.0000 </r>
       <r>    6.7675    0.0000 </r>
       <r>    7.5766    0.0000 </r>
       <r>    8.0704    0.0000 </r>
       <r>    8.0704    0.0000 </r>
       <r>    8.1360    0.0000 </r>
       <r>    9.4005    0.0000 </r>
       <r>    9.4445    0.0000 </r>
       <r>    9.4445    0.0000 </r>
       <r>   10.0519    0.0000 </r>
      </set>
      <set comment="kpoint 26">
       <r>   -5.2548    1.0000 </r>
       <r>   -4.8765    1.0000 </r>
       <r>   -2.5636    1.0000 </r>
       <r>   -2.5636    1.0000 </r>
       <r>   -1.4432    1.0000 </r>
       <r>   -1.4432    1.0000 </r>
       <r>    1.4642    1.0000 </r>
       <r>    1.5883    1.0000 </r>
       <r>    1.5883    1.0000 </r>
       <r>    2.1545    1.0000 </r>
       <r>    2.4010    1.0000 </r>
       <r>    2.4010    1.0000 </r>
       <r>    3.4496    1.0000 </r>
       <r>    3.6502    1.0000 </r>
       <r>    3.8988    1.0000 </r>
       <r>    3.9759    1.0000 </r>
       <r>    6.9935    0.0000 </r>
       <r>    7.2687    0.0000 </r>
       <r>    8.6981    0.0000 </r>
       <r>    8.9747    0.0000 </r>
       <r>    8.9747    0.0000 </r>
       <r>    9.2909    0.0000 </r>
       <r>    9.9506    0.0000 </r>
       <r>    9.9506    0.0000 </r>
       <r>   10.4376    0.0000 </r>
      </set>
      <set comment="kpoint 27">
       <r>   -5.8830    1.0000 </r>
       <r>   -3.3115    1.0000 </r>
       <r>   -3.3115    1.0000 </r>
       <r>   -2.7149    1.0000 </r>
       <r>   -1.4117    1.0000 </r>
       <r>   -0.7584    1.0000 </r>
       <r>   -0.7584    1.0000 </r>
       <r>    1.8233    1.0000 </r>
       <r>    2.2855    1.0000 </r>
       <r>    2.2855    1.0000 </r>
       <r>    2.9773    1.0000 </r>
       <r>    2.9773    1.0000 </r>
       <r>    3.0738    1.0000 </r>
       <r>    3.5090    1.0000 </r>
       <r>    4.8811    1.0000 </r>
       <r>    5.3697    1.0000 </r>
       <r>    6.6630    0.0000 </r>
       <r>    6.8031    0.0000 </r>
       <r>    6.8031    0.0000 </r>
       <r>    7.9122    0.0000 </r>
       <r>    7.9122    0.0000 </r>
       <r>    8.1197    0.0000 </r>
       <r>    8.4779    0.0000 </r>
       <r>    8.5758    0.0000 </r>
       <r>    8.8596    0.0000 </r>
      </set>
      <set comment="kpoint 28">
       <r>   -5.7088    1.0000 </r>
       <r>   -3.8559    1.0000 </r>
       <r>   -3.2118    1.0000 </r>
       <r>   -2.7176    1.0000 </r>
       <r>   -1.3894    1.0000 </r>
       <r>   -0.8490    1.0000 </r>
       <r>   -0.0983    1.0000 </r>
       <r>    1.6054    1.0000 </r>
       <r>    2.0176    1.0000 </r>
       <r>    2.5237    1.0000 </r>
       <r>    2.8571    1.0000 </r>
       <r>    2.9263    1.0000 </r>
       <r>    3.0879    1.0000 </r>
       <r>    3.1625    1.0000 </r>
       <r>    4.4826    1.0000 </r>
       <r>    5.1505    1.0000 </r>
       <r>    6.9495    0.0000 </r>
       <r>    6.9771    0.0000 </r>
       <r>    7.3858    0.0000 </r>
       <r>    8.1683    0.0000 </r>
       <r>    8.2096    0.0000 </r>
       <r>    8.6322    0.0000 </r>
       <r>    8.6946    0.0000 </r>
       <r>    9.2957    0.0000 </r>
       <r>    9.3363    0.0000 </r>
      </set>
      <set comment="kpoint 29">
       <r>   -5.4663    1.0000 </r>
       <r>   -4.3485    1.0000 </r>
       <r>   -3.0871    1.0000 </r>
       <r>   -2.7542    1.0000 </r>
       <r>   -1.3372    1.0000 </r>
       <r>   -0.9740    1.0000 </r>
       <r>    0.5443    1.0000 </r>
       <r>    1.5075    1.0000 </r>
       <r>    1.7989    1.0000 </r>
       <r>    2.3424    1.0000 </r>
       <r>    2.7547    1.0000 </r>
       <r>    2.8449    1.0000 </r>
       <r>    2.9708    1.0000 </r>
       <r>    3.4301    1.0000 </r>
       <r>    4.0578    1.0000 </r>
       <r>    4.7187    1.0000 </r>
       <r>    7.1497    0.0000 </r>
       <r>    7.5975    0.0000 </r>
       <r>    7.9678    0.0000 </r>
       <r>    8.1656    0.0000 </r>
       <r>    8.6201    0.0000 </r>
       <r>    9.0472    0.0000 </r>
       <r>    9.5708    0.0000 </r>
       <r>    9.9008    0.0000 </r>
       <r>   10.2479    0.0000 </r>
      </set>
      <set comment="kpoint 30">
       <r>   -5.1572    1.0000 </r>
       <r>   -4.7836    1.0000 </r>
       <r>   -2.9543    1.0000 </r>
       <r>   -2.8360    1.0000 </r>
       <r>   -1.2434    1.0000 </r>
       <r>   -1.1145    1.0000 </r>
       <r>    1.1617    1.0000 </r>
       <r>    1.5236    1.0000 </r>
       <r>    1.6299    1.0000 </r>
       <r>    1.7575    1.0000 </r>
       <r>    2.7426    1.0000 </r>
       <r>    2.8289    1.0000 </r>
       <r>    3.2253    1.0000 </r>
       <r>    3.6353    1.0000 </r>
       <r>    3.7884    1.0000 </r>
       <r>    4.2325    1.0000 </r>
       <r>    7.3970    0.0000 </r>
       <r>    7.6787    0.0000 </r>
       <r>    8.4190    0.0000 </r>
       <r>    9.0521    0.0000 </r>
       <r>    9.1226    0.0000 </r>
       <r>    9.3970    0.0000 </r>
       <r>    9.4890    0.0000 </r>
       <r>   10.0549    0.0000 </r>
       <r>   10.0760    0.0000 </r>
      </set>
      <set comment="kpoint 31">
       <r>   -5.5373    1.0000 </r>
       <r>   -3.7317    1.0000 </r>
       <r>   -3.7317    1.0000 </r>
       <r>   -2.8218    1.0000 </r>
       <r>   -1.3131    1.0000 </r>
       <r>   -0.2865    1.0000 </r>
       <r>   -0.2865    1.0000 </r>
       <r>    1.4669    1.0000 </r>
       <r>    2.2515    1.0000 </r>
       <r>    2.2515    1.0000 </r>
       <r>    2.3724    1.0000 </r>
       <r>    3.1267    1.0000 </r>
       <r>    3.1267    1.0000 </r>
       <r>    3.3418    1.0000 </r>
       <r>    4.0833    1.0000 </r>
       <r>    5.1987    1.0000 </r>
       <r>    6.9771    0.0000 </r>
       <r>    7.5425    0.0000 </r>
       <r>    7.5425    0.0000 </r>
       <r>    8.2640    0.0000 </r>
       <r>    8.8579    0.0000 </r>
       <r>    8.9546    0.0000 </r>
       <r>    8.9546    0.0000 </r>
       <r>    9.2032    0.0000 </r>
       <r>   10.2192    0.0000 </r>
      </set>
      <set comment="kpoint 32">
       <r>   -5.2991    1.0000 </r>
       <r>   -4.2075    1.0000 </r>
       <r>   -3.5675    1.0000 </r>
       <r>   -2.9783    1.0000 </r>
       <r>   -1.1806    1.0000 </r>
       <r>   -0.5192    1.0000 </r>
       <r>    0.2536    1.0000 </r>
       <r>    1.4561    1.0000 </r>
       <r>    1.8274    1.0000 </r>
       <r>    1.9847    1.0000 </r>
       <r>    2.5466    1.0000 </r>
       <r>    3.1359    1.0000 </r>
       <r>    3.4025    1.0000 </r>
       <r>    3.5097    1.0000 </r>
       <r>    3.6646    1.0000 </r>
       <r>    4.9397    1.0000 </r>
       <r>    7.3379    0.0000 </r>
       <r>    7.7509    0.0000 </r>
       <r>    8.3184    0.0000 </r>
       <r>    8.3736    0.0000 </r>
       <r>    8.8537    0.0000 </r>
       <r>    9.3203    0.0000 </r>
       <r>    9.6760    0.0000 </r>
       <r>    9.6912    0.0000 </r>
       <r>    9.9909    0.0000 </r>
      </set>
      <set comment="kpoint 33">
       <r>   -4.9959    1.0000 </r>
       <r>   -4.6308    1.0000 </r>
       <r>   -3.3749    1.0000 </r>
       <r>   -3.1709    1.0000 </r>
       <r>   -0.9931    1.0000 </r>
       <r>   -0.7648    1.0000 </r>
       <r>    0.7771    1.0000 </r>
       <r>    1.2976    1.0000 </r>
       <r>    1.5568    1.0000 </r>
       <r>    1.7431    1.0000 </r>
       <r>    2.8857    1.0000 </r>
       <r>    3.2135    1.0000 </r>
       <r>    3.2606    1.0000 </r>
       <r>    3.3265    1.0000 </r>
       <r>    3.9824    1.0000 </r>
       <r>    4.4892    1.0000 </r>
       <r>    7.9956    0.0000 </r>
       <r>    7.9970    0.0000 </r>
       <r>    8.2493    0.0000 </r>
       <r>    8.8418    0.0000 </r>
       <r>    9.1285    0.0000 </r>
       <r>    9.2259    0.0000 </r>
       <r>    9.6092    0.0000 </r>
       <r>    9.8318    0.0000 </r>
       <r>   10.2087    0.0000 </r>
      </set>
      <set comment="kpoint 34">
       <r>   -5.0672    1.0000 </r>
       <r>   -4.0166    1.0000 </r>
       <r>   -4.0166    1.0000 </r>
       <r>   -3.2437    1.0000 </r>
       <r>   -0.9679    1.0000 </r>
       <r>   -0.0743    1.0000 </r>
       <r>   -0.0743    1.0000 </r>
       <r>    1.3205    1.0000 </r>
       <r>    1.5225    1.0000 </r>
       <r>    2.2286    1.0000 </r>
       <r>    2.2286    1.0000 </r>
       <r>    3.2577    1.0000 </r>
       <r>    3.6208    1.0000 </r>
       <r>    3.6208    1.0000 </r>
       <r>    3.6950    1.0000 </r>
       <r>    4.9123    1.0000 </r>
       <r>    7.3828    0.0000 </r>
       <r>    8.3901    0.0000 </r>
       <r>    8.5165    0.0000 </r>
       <r>    8.5165    0.0000 </r>
       <r>    9.2682    0.0000 </r>
       <r>    9.2939    0.0000 </r>
       <r>    9.2939    0.0000 </r>
       <r>    9.4918    0.0000 </r>
       <r>   10.1758    0.0000 </r>
      </set>
      <set comment="kpoint 35">
       <r>   -4.7733    1.0000 </r>
       <r>   -4.4213    1.0000 </r>
       <r>   -3.7836    1.0000 </r>
       <r>   -3.5202    1.0000 </r>
       <r>   -0.7052    1.0000 </r>
       <r>   -0.4021    1.0000 </r>
       <r>    0.3730    1.0000 </r>
       <r>    0.8355    1.0000 </r>
       <r>    1.6885    1.0000 </r>
       <r>    1.9322    1.0000 </r>
       <r>    2.5262    1.0000 </r>
       <r>    2.8724    1.0000 </r>
       <r>    3.7348    1.0000 </r>
       <r>    3.7892    1.0000 </r>
       <r>    4.1446    1.0000 </r>
       <r>    4.6151    1.0000 </r>
       <r>    7.7737    0.0000 </r>
       <r>    8.4444    0.0000 </r>
       <r>    8.4945    0.0000 </r>
       <r>    8.6772    0.0000 </r>
       <r>    8.9479    0.0000 </r>
       <r>    9.0982    0.0000 </r>
       <r>    9.4060    0.0000 </r>
       <r>   10.1248    0.0000 </r>
       <r>   10.3717    0.0000 </r>
      </set>
      <set comment="kpoint 36">
       <r>   -4.4930    1.0000 </r>
       <r>   -4.1604    1.0000 </r>
       <r>   -4.1604    1.0000 </r>
       <r>   -3.8560    1.0000 </r>
       <r>   -0.3797    1.0000 </r>
       <r>   -0.0180    1.0000 </r>
       <r>   -0.0180    1.0000 </r>
       <r>    0.3943    1.0000 </r>
       <r>    1.9051    1.0000 </r>
       <r>    2.1906    1.0000 </r>
       <r>    2.1906    1.0000 </r>
       <r>    2.5086    1.0000 </r>
       <r>    4.1054    1.0000 </r>
       <r>    4.2114    1.0000 </r>
       <r>    4.2114    1.0000 </r>
       <r>    4.5300    1.0000 </r>
       <r>    7.8362    0.0000 </r>
       <r>    8.2166    0.0000 </r>
       <r>    8.2166    0.0000 </r>
       <r>    8.2344    0.0000 </r>
       <r>    9.6284    0.0000 </r>
       <r>    9.6284    0.0000 </r>
       <r>    9.8204    0.0000 </r>
       <r>    9.9298    0.0000 </r>
       <r>   10.5226    0.0000 </r>
      </set>
      <set comment="kpoint 37">
       <r>   -5.7791    1.0000 </r>
       <r>   -3.2636    1.0000 </r>
       <r>   -3.2636    1.0000 </r>
       <r>   -3.2636    1.0000 </r>
       <r>   -0.8321    1.0000 </r>
       <r>   -0.8321    1.0000 </r>
       <r>   -0.8321    1.0000 </r>
       <r>    2.0264    1.0000 </r>
       <r>    2.0264    1.0000 </r>
       <r>    2.0264    1.0000 </r>
       <r>    2.9670    1.0000 </r>
       <r>    3.1649    1.0000 </r>
       <r>    3.1649    1.0000 </r>
       <r>    3.1649    1.0000 </r>
       <r>    5.1131    1.0000 </r>
       <r>    5.1131    1.0000 </r>
       <r>    6.7797    0.0000 </r>
       <r>    6.7797    0.0000 </r>
       <r>    6.7797    0.0000 </r>
       <r>    7.8360    0.0000 </r>
       <r>    8.6258    0.0000 </r>
       <r>    8.6258    0.0000 </r>
       <r>    8.6258    0.0000 </r>
       <r>    8.8771    0.0000 </r>
       <r>    8.8771    0.0000 </r>
      </set>
      <set comment="kpoint 38">
       <r>   -5.6067    1.0000 </r>
       <r>   -3.7879    1.0000 </r>
       <r>   -3.1956    1.0000 </r>
       <r>   -3.1956    1.0000 </r>
       <r>   -0.9410    1.0000 </r>
       <r>   -0.9410    1.0000 </r>
       <r>   -0.2616    1.0000 </r>
       <r>    1.8582    1.0000 </r>
       <r>    1.8582    1.0000 </r>
       <r>    2.3637    1.0000 </r>
       <r>    2.4042    1.0000 </r>
       <r>    3.1904    1.0000 </r>
       <r>    3.1904    1.0000 </r>
       <r>    3.3153    1.0000 </r>
       <r>    4.7788    1.0000 </r>
       <r>    4.9867    1.0000 </r>
       <r>    6.9673    0.0000 </r>
       <r>    7.0957    0.0000 </r>
       <r>    7.0957    0.0000 </r>
       <r>    7.8899    0.0000 </r>
       <r>    8.7601    0.0000 </r>
       <r>    8.8755    0.0000 </r>
       <r>    9.2891    0.0000 </r>
       <r>    9.4690    0.0000 </r>
       <r>    9.4690    0.0000 </r>
      </set>
      <set comment="kpoint 39">
       <r>   -5.3671    1.0000 </r>
       <r>   -4.2678    1.0000 </r>
       <r>   -3.1263    1.0000 </r>
       <r>   -3.1263    1.0000 </r>
       <r>   -1.0537    1.0000 </r>
       <r>   -1.0537    1.0000 </r>
       <r>    0.2826    1.0000 </r>
       <r>    1.7800    1.0000 </r>
       <r>    1.7800    1.0000 </r>
       <r>    1.8554    1.0000 </r>
       <r>    2.8225    1.0000 </r>
       <r>    3.1118    1.0000 </r>
       <r>    3.1118    1.0000 </r>
       <r>    3.5224    1.0000 </r>
       <r>    4.4252    1.0000 </r>
       <r>    4.5444    1.0000 </r>
       <r>    7.2144    0.0000 </r>
       <r>    7.7076    0.0000 </r>
       <r>    7.7076    0.0000 </r>
       <r>    7.9917    0.0000 </r>
       <r>    8.8580    0.0000 </r>
       <r>    9.2277    0.0000 </r>
       <r>    9.7610    0.0000 </r>
       <r>   10.2694    0.0000 </r>
       <r>   10.2694    0.0000 </r>
      </set>
      <set comment="kpoint 40">
       <r>   -5.0620    1.0000 </r>
       <r>   -4.6943    1.0000 </r>
       <r>   -3.0813    1.0000 </r>
       <r>   -3.0813    1.0000 </r>
       <r>   -1.1268    1.0000 </r>
       <r>   -1.1268    1.0000 </r>
       <r>    0.8062    1.0000 </r>
       <r>    1.3254    1.0000 </r>
       <r>    1.7581    1.0000 </r>
       <r>    1.7581    1.0000 </r>
       <r>    3.0364    1.0000 </r>
       <r>    3.0364    1.0000 </r>
       <r>    3.3727    1.0000 </r>
       <r>    3.7817    1.0000 </r>
       <r>    3.9685    1.0000 </r>
       <r>    4.0864    1.0000 </r>
       <r>    7.5019    0.0000 </r>
       <r>    7.7947    0.0000 </r>
       <r>    8.5186    0.0000 </r>
       <r>    8.5186    0.0000 </r>
       <r>    9.3879    0.0000 </r>
       <r>    9.4627    0.0000 </r>
       <r>    9.4627    0.0000 </r>
       <r>    9.6481    0.0000 </r>
       <r>   10.2377    0.0000 </r>
      </set>
      <set comment="kpoint 41">
       <r>   -5.4376    1.0000 </r>
       <r>   -3.6815    1.0000 </r>
       <r>   -3.6815    1.0000 </r>
       <r>   -3.1880    1.0000 </r>
       <r>   -1.0463    1.0000 </r>
       <r>   -0.4910    1.0000 </r>
       <r>   -0.4910    1.0000 </r>
       <r>    1.8010    1.0000 </r>
       <r>    1.8611    1.0000 </r>
       <r>    2.2537    1.0000 </r>
       <r>    2.2537    1.0000 </r>
       <r>    3.3641    1.0000 </r>
       <r>    3.3641    1.0000 </r>
       <r>    3.4255    1.0000 </r>
       <r>    4.5317    1.0000 </r>
       <r>    5.0328    1.0000 </r>
       <r>    7.0995    0.0000 </r>
       <r>    7.2863    0.0000 </r>
       <r>    7.2863    0.0000 </r>
       <r>    7.7773    0.0000 </r>
       <r>    8.9577    0.0000 </r>
       <r>    9.2431    0.0000 </r>
       <r>    9.6929    0.0000 </r>
       <r>    9.6929    0.0000 </r>
       <r>   10.3369    0.0000 </r>
      </set>
      <set comment="kpoint 42">
       <r>   -5.2030    1.0000 </r>
       <r>   -4.1376    1.0000 </r>
       <r>   -3.5489    1.0000 </r>
       <r>   -3.2136    1.0000 </r>
       <r>   -1.1065    1.0000 </r>
       <r>   -0.7351    1.0000 </r>
       <r>   -0.0527    1.0000 </r>
       <r>    1.3395    1.0000 </r>
       <r>    1.8391    1.0000 </r>
       <r>    2.1651    1.0000 </r>
       <r>    2.7440    1.0000 </r>
       <r>    3.3580    1.0000 </r>
       <r>    3.4933    1.0000 </r>
       <r>    3.6155    1.0000 </r>
       <r>    4.1545    1.0000 </r>
       <r>    4.8060    1.0000 </r>
       <r>    7.4506    0.0000 </r>
       <r>    7.5347    0.0000 </r>
       <r>    7.8828    0.0000 </r>
       <r>    7.9466    0.0000 </r>
       <r>    8.8904    0.0000 </r>
       <r>    9.5450    0.0000 </r>
       <r>    9.8541    0.0000 </r>
       <r>   10.0111    0.0000 </r>
       <r>   10.2144    0.0000 </r>
      </set>
      <set comment="kpoint 43">
       <r>   -4.9054    1.0000 </r>
       <r>   -4.5484    1.0000 </r>
       <r>   -3.4093    1.0000 </r>
       <r>   -3.2894    1.0000 </r>
       <r>   -1.0756    1.0000 </r>
       <r>   -0.9439    1.0000 </r>
       <r>    0.3887    1.0000 </r>
       <r>    0.8493    1.0000 </r>
       <r>    1.9393    1.0000 </r>
       <r>    2.0599    1.0000 </r>
       <r>    3.2594    1.0000 </r>
       <r>    3.3800    1.0000 </r>
       <r>    3.4456    1.0000 </r>
       <r>    3.7341    1.0000 </r>
       <r>    3.9576    1.0000 </r>
       <r>    4.3851    1.0000 </r>
       <r>    7.8093    0.0000 </r>
       <r>    8.0197    0.0000 </r>
       <r>    8.0913    0.0000 </r>
       <r>    8.6733    0.0000 </r>
       <r>    8.9242    0.0000 </r>
       <r>    9.0426    0.0000 </r>
       <r>    9.5675    0.0000 </r>
       <r>    9.5923    0.0000 </r>
       <r>   10.0063    0.0000 </r>
      </set>
      <set comment="kpoint 44">
       <r>   -4.9762    1.0000 </r>
       <r>   -3.9654    1.0000 </r>
       <r>   -3.9654    1.0000 </r>
       <r>   -3.3600    1.0000 </r>
       <r>   -1.0727    1.0000 </r>
       <r>   -0.3942    1.0000 </r>
       <r>   -0.3942    1.0000 </r>
       <r>    0.8460    1.0000 </r>
       <r>    1.9736    1.0000 </r>
       <r>    2.5888    1.0000 </r>
       <r>    2.5888    1.0000 </r>
       <r>    3.7152    1.0000 </r>
       <r>    3.7152    1.0000 </r>
       <r>    3.7648    1.0000 </r>
       <r>    3.7879    1.0000 </r>
       <r>    4.8401    1.0000 </r>
       <r>    7.4861    0.0000 </r>
       <r>    7.9675    0.0000 </r>
       <r>    8.1013    0.0000 </r>
       <r>    8.1013    0.0000 </r>
       <r>    9.1416    0.0000 </r>
       <r>    9.3278    0.0000 </r>
       <r>    9.3278    0.0000 </r>
       <r>    9.3342    0.0000 </r>
       <r>   10.6345    0.0000 </r>
      </set>
      <set comment="kpoint 45">
       <r>   -4.6903    1.0000 </r>
       <r>   -4.3505    1.0000 </r>
       <r>   -3.7639    1.0000 </r>
       <r>   -3.5529    1.0000 </r>
       <r>   -0.9325    1.0000 </r>
       <r>   -0.6980    1.0000 </r>
       <r>   -0.0215    1.0000 </r>
       <r>    0.3910    1.0000 </r>
       <r>    2.1632    1.0000 </r>
       <r>    2.3807    1.0000 </r>
       <r>    3.0033    1.0000 </r>
       <r>    3.4013    1.0000 </r>
       <r>    3.8144    1.0000 </r>
       <r>    3.8585    1.0000 </r>
       <r>    4.1527    1.0000 </r>
       <r>    4.5772    1.0000 </r>
       <r>    7.8528    0.0000 </r>
       <r>    8.1564    0.0000 </r>
       <r>    8.2722    0.0000 </r>
       <r>    8.4661    0.0000 </r>
       <r>    8.9106    0.0000 </r>
       <r>    8.9505    0.0000 </r>
       <r>    8.9769    0.0000 </r>
       <r>    9.7396    0.0000 </r>
       <r>    9.7615    0.0000 </r>
      </set>
      <set comment="kpoint 46">
       <r>   -4.4220    1.0000 </r>
       <r>   -4.1088    1.0000 </r>
       <r>   -4.1088    1.0000 </r>
       <r>   -3.8360    1.0000 </r>
       <r>   -0.7000    1.0000 </r>
       <r>   -0.3911    1.0000 </r>
       <r>   -0.3911    1.0000 </r>
       <r>   -0.0262    1.0000 </r>
       <r>    2.4241    1.0000 </r>
       <r>    2.7112    1.0000 </r>
       <r>    2.7112    1.0000 </r>
       <r>    3.0535    1.0000 </r>
       <r>    4.1499    1.0000 </r>
       <r>    4.2413    1.0000 </r>
       <r>    4.2413    1.0000 </r>
       <r>    4.5298    1.0000 </r>
       <r>    7.8790    0.0000 </r>
       <r>    8.0972    0.0000 </r>
       <r>    8.1823    0.0000 </r>
       <r>    8.1823    0.0000 </r>
       <r>    9.1673    0.0000 </r>
       <r>    9.1673    0.0000 </r>
       <r>    9.4142    0.0000 </r>
       <r>    9.5021    0.0000 </r>
       <r>    9.8749    0.0000 </r>
      </set>
      <set comment="kpoint 47">
       <r>   -5.2727    1.0000 </r>
       <r>   -3.6101    1.0000 </r>
       <r>   -3.6101    1.0000 </r>
       <r>   -3.6101    1.0000 </r>
       <r>   -0.7406    1.0000 </r>
[...]
       <r>   -1.0091    1.0000 </r>
       <r>   -0.1013    1.0000 </r>
       <r>    3.2315    1.0000 </r>
       <r>    3.2315    1.0000 </r>
       <r>    3.2315    1.0000 </r>
       <r>    4.0254    1.0000 </r>
       <r>    4.0254    1.0000 </r>
       <r>    4.0254    1.0000 </r>
       <r>    4.5652    1.0000 </r>
       <r>    4.5652    1.0000 </r>
       <r>    7.2296    0.0000 </r>
       <r>    7.7637    0.0000 </r>
       <r>    7.7637    0.0000 </r>
       <r>    7.7637    0.0000 </r>
       <r>    9.0800    0.0000 </r>
       <r>    9.0800    0.0000 </r>
       <r>    9.2290    0.0000 </r>
       <r>    9.2290    0.0000 </r>
       <r>    9.2290    0.0000 </r>
      </set>
      <set comment="kpoint 54">
       <r>   -4.3796    1.0000 </r>
       <r>   -4.1029    1.0000 </r>
       <r>   -3.7697    1.0000 </r>
       <r>   -3.7697    1.0000 </r>
       <r>   -1.1623    1.0000 </r>
       <r>   -1.1623    1.0000 </r>
       <r>   -0.7992    1.0000 </r>
       <r>   -0.4907    1.0000 </r>
       <r>    3.3705    1.0000 </r>
       <r>    3.3705    1.0000 </r>
       <r>    3.8742    1.0000 </r>
       <r>    4.1265    1.0000 </r>
       <r>    4.1265    1.0000 </r>
       <r>    4.1993    1.0000 </r>
       <r>    4.3850    1.0000 </r>
       <r>    4.3866    1.0000 </r>
       <r>    7.3668    0.0000 </r>
       <r>    7.6832    0.0000 </r>
       <r>    7.8895    0.0000 </r>
       <r>    7.8895    0.0000 </r>
       <r>    8.8623    0.0000 </r>
       <r>    8.8623    0.0000 </r>
       <r>    8.8825    0.0000 </r>
       <r>    8.9219    0.0000 </r>
       <r>    9.2187    0.0000 </r>
      </set>
      <set comment="kpoint 55">
       <r>   -4.1736    1.0000 </r>
       <r>   -3.9603    1.0000 </r>
       <r>   -3.9603    1.0000 </r>
       <r>   -3.8408    1.0000 </r>
       <r>   -1.1911    1.0000 </r>
       <r>   -1.0622    1.0000 </r>
       <r>   -1.0622    1.0000 </r>
       <r>   -0.8292    1.0000 </r>
       <r>    3.7001    1.0000 </r>
       <r>    3.8828    1.0000 </r>
       <r>    3.8828    1.0000 </r>
       <r>    4.2012    1.0000 </r>
       <r>    4.2983    1.0000 </r>
       <r>    4.3263    1.0000 </r>
       <r>    4.3263    1.0000 </r>
       <r>    4.4961    1.0000 </r>
       <r>    7.3183    0.0000 </r>
       <r>    7.5864    0.0000 </r>
       <r>    7.5864    0.0000 </r>
       <r>    7.6540    0.0000 </r>
       <r>    8.8684    0.0000 </r>
       <r>    8.8684    0.0000 </r>
       <r>    8.9406    0.0000 </r>
       <r>    9.0289    0.0000 </r>
       <r>    9.0333    0.0000 </r>
      </set>
      <set comment="kpoint 56">
       <r>   -4.0308    1.0000 </r>
       <r>   -3.9115    1.0000 </r>
       <r>   -3.9115    1.0000 </r>
       <r>   -3.9115    1.0000 </r>
       <r>   -1.2247    1.0000 </r>
       <r>   -1.2247    1.0000 </r>
       <r>   -1.2247    1.0000 </r>
       <r>   -1.0962    1.0000 </r>
       <r>    4.2330    1.0000 </r>
       <r>    4.2330    1.0000 </r>
       <r>    4.2330    1.0000 </r>
       <r>    4.3795    1.0000 </r>
       <r>    4.3795    1.0000 </r>
       <r>    4.3795    1.0000 </r>
       <r>    4.4484    1.0000 </r>
       <r>    4.4484    1.0000 </r>
       <r>    7.0945    0.0000 </r>
       <r>    7.2759    0.0000 </r>
       <r>    7.2759    0.0000 </r>
       <r>    7.2759    0.0000 </r>
       <r>    8.9165    0.0000 </r>
       <r>    8.9165    0.0000 </r>
       <r>    8.9165    0.0000 </r>
       <r>    8.9777    0.0000 </r>
       <r>    8.9777    0.0000 </r>
      </set>
     </set>
    </set>
   </array>
  </eigenvalues>
  <separator name="orbital magnetization" >
   <v name="MAGDIPOLOUT">      0.00000000      0.00000000      0.00000000</v>
  </separator>
  <dos>
   <i name="efermi">      5.91456428 </i>
   <total>
    <array>
     <dimension dim="1">gridpoints</dimension>
     <dimension dim="2">spin</dimension>
     <field>energy</field>
     <field>total</field>
     <field>integrated</field>
     <set>
      <set comment="spin 1">
       <r>    -7.2001     0.0000     0.0000 </r>
       <r>    -7.1366     0.0000     0.0000 </r>
       <r>    -7.0731     0.0000     0.0000 </r>
       <r>    -7.0096     0.0000     0.0000 </r>
       <r>    -6.9461     0.0000     0.0000 </r>
       <r>    -6.8826     0.0000     0.0000 </r>
       <r>    -6.8191     0.0000     0.0000 </r>
       <r>    -6.7556     0.0000     0.0000 </r>
       <r>    -6.6921     0.0000     0.0000 </r>
       <r>    -6.6286     0.0000     0.0000 </r>
       <r>    -6.5651     0.0000     0.0000 </r>
       <r>    -6.5016     0.0000     0.0000 </r>
       <r>    -6.4381     0.0000     0.0000 </r>
       <r>    -6.3746     0.0004     0.0000 </r>
       <r>    -6.3111     0.0053     0.0004 </r>
       <r>    -6.2476     0.0344     0.0025 </r>
       <r>    -6.1841     0.1238     0.0104 </r>
       <r>    -6.1206     0.2754     0.0279 </r>
       <r>    -6.0571     0.4455     0.0562 </r>
       <r>    -5.9936     0.5836     0.0932 </r>
       <r>    -5.9301     0.6712     0.1359 </r>
       <r>    -5.8666     0.7845     0.1857 </r>
       <r>    -5.8031     0.8934     0.2424 </r>
       <r>    -5.7396     0.9431     0.3023 </r>
       <r>    -5.6761     0.9685     0.3638 </r>
       <r>    -5.6126     1.0556     0.4308 </r>
       <r>    -5.5491     1.2266     0.5087 </r>
       <r>    -5.4857     1.2918     0.5907 </r>
       <r>    -5.4222     1.2028     0.6671 </r>
       <r>    -5.3587     1.1892     0.7426 </r>
       <r>    -5.2952     1.4198     0.8328 </r>
       <r>    -5.2317     1.6093     0.9350 </r>
       <r>    -5.1682     1.5797     1.0353 </r>
       <r>    -5.1047     1.4873     1.1297 </r>
       <r>    -5.0412     1.5512     1.2282 </r>
       <r>    -4.9777     1.6580     1.3335 </r>
       <r>    -4.9142     1.6716     1.4396 </r>
       <r>    -4.8507     1.7979     1.5538 </r>
       <r>    -4.7872     2.0543     1.6842 </r>
       <r>    -4.7237     2.1059     1.8180 </r>
       <r>    -4.6602     1.9201     1.9399 </r>
       <r>    -4.5967     1.7890     2.0535 </r>
       <r>    -4.5332     1.8561     2.1713 </r>
       <r>    -4.4697     2.1623     2.3086 </r>
       <r>    -4.4062     2.5635     2.4714 </r>
       <r>    -4.3427     2.6140     2.6374 </r>
       <r>    -4.2792     2.3419     2.7861 </r>
       <r>    -4.2157     2.3626     2.9361 </r>
       <r>    -4.1522     2.6171     3.1023 </r>
       <r>    -4.0887     2.6762     3.2722 </r>
       <r>    -4.0252     2.7518     3.4470 </r>
       <r>    -3.9617     3.0088     3.6380 </r>
       <r>    -3.8982     3.3183     3.8487 </r>
       <r>    -3.8347     3.7770     4.0886 </r>
       <r>    -3.7712     4.0691     4.3469 </r>
       <r>    -3.7077     3.5642     4.5733 </r>
       <r>    -3.6442     2.8239     4.7526 </r>
       <r>    -3.5807     2.9787     4.9417 </r>
       <r>    -3.5172     3.3785     5.1562 </r>
       <r>    -3.4537     2.9981     5.3466 </r>
       <r>    -3.3902     2.6413     5.5143 </r>
       <r>    -3.3267     2.7866     5.6913 </r>
       <r>    -3.2632     3.0445     5.8846 </r>
       <r>    -3.1997     3.3475     6.0971 </r>
       <r>    -3.1362     3.2688     6.3047 </r>
       <r>    -3.0727     2.6240     6.4713 </r>
       <r>    -3.0092     1.8932     6.5915 </r>
       <r>    -2.9457     1.5447     6.6896 </r>
       <r>    -2.8822     1.5478     6.7879 </r>
       <r>    -2.8187     1.8856     6.9076 </r>
       <r>    -2.7552     2.5653     7.0705 </r>
       <r>    -2.6917     2.9276     7.2564 </r>
       <r>    -2.6282     2.5837     7.4205 </r>
       <r>    -2.5647     1.9879     7.5467 </r>
       <r>    -2.5012     1.3650     7.6334 </r>
       <r>    -2.4377     0.8879     7.6898 </r>
       <r>    -2.3742     0.7059     7.7346 </r>
       <r>    -2.3107     0.7047     7.7793 </r>
       <r>    -2.2472     0.7797     7.8289 </r>
       <r>    -2.1838     0.8511     7.8829 </r>
       <r>    -2.1203     0.9338     7.9422 </r>
       <r>    -2.0568     1.0455     8.0086 </r>
       <r>    -1.9933     1.0545     8.0755 </r>
       <r>    -1.9298     0.8458     8.1292 </r>
       <r>    -1.8663     0.5850     8.1664 </r>
       <r>    -1.8028     0.4652     8.1959 </r>
       <r>    -1.7393     0.4520     8.2246 </r>
       <r>    -1.6758     0.5081     8.2569 </r>
       <r>    -1.6123     0.5916     8.2945 </r>
       <r>    -1.5488     0.8947     8.3513 </r>
       <r>    -1.4853     1.9940     8.4779 </r>
       <r>    -1.4218     3.4567     8.6974 </r>
       <r>    -1.3583     3.5815     8.9248 </r>
       <r>    -1.2948     2.6202     9.0912 </r>
       <r>    -1.2313     2.3760     9.2421 </r>
       <r>    -1.1678     3.3177     9.4527 </r>
       <r>    -1.1043     4.7209     9.7525 </r>
       <r>    -1.0408     5.4711    10.0999 </r>
       <r>    -0.9773     5.3572    10.4401 </r>
       <r>    -0.9138     4.6308    10.7341 </r>
       <r>    -0.8503     3.6690    10.9671 </r>
       <r>    -0.7868     3.7192    11.2033 </r>
       <r>    -0.7233     4.3232    11.4778 </r>
       <r>    -0.6598     3.6610    11.7102 </r>
       <r>    -0.5963     2.1294    11.8455 </r>
       <r>    -0.5328     1.5922    11.9466 </r>
       <r>    -0.4693     2.2326    12.0883 </r>
       <r>    -0.4058     2.8636    12.2702 </r>
       <r>    -0.3423     2.5832    12.4342 </r>
       <r>    -0.2788     1.8262    12.5501 </r>
       <r>    -0.2153     1.3534    12.6361 </r>
       <r>    -0.1518     1.3828    12.7239 </r>
       <r>    -0.0883     2.2247    12.8651 </r>
       <r>    -0.0248     3.0629    13.0596 </r>
       <r>     0.0387     2.6314    13.2267 </r>
       <r>     0.1022     1.5187    13.3232 </r>
       <r>     0.1657     0.8356    13.3762 </r>
       <r>     0.2292     0.7860    13.4261 </r>
       <r>     0.2927     1.2049    13.5026 </r>
       <r>     0.3562     1.8903    13.6227 </r>
       <r>     0.4197     2.1288    13.7578 </r>
       <r>     0.4832     1.5122    13.8539 </r>
       <r>     0.5467     0.9887    13.9166 </r>
       <r>     0.6102     0.8459    13.9704 </r>
       <r>     0.6737     0.7484    14.0179 </r>
       <r>     0.7372     0.9974    14.0812 </r>
       <r>     0.8007     1.7133    14.1900 </r>
       <r>     0.8642     2.0406    14.3196 </r>
       <r>     0.9277     1.4401    14.4110 </r>
       <r>     0.9912     0.7119    14.4562 </r>
       <r>     1.0546     0.4426    14.4843 </r>
       <r>     1.1181     0.4745    14.5145 </r>
       <r>     1.1816     0.6142    14.5535 </r>
       <r>     1.2451     0.9710    14.6151 </r>
       <r>     1.3086     1.7521    14.7264 </r>
       <r>     1.3721     2.4165    14.8798 </r>
       <r>     1.4356     2.7679    15.0556 </r>
       <r>     1.4991     3.4334    15.2736 </r>
       <r>     1.5626     4.1599    15.5377 </r>
       <r>     1.6261     4.3180    15.8119 </r>
       <r>     1.6896     4.1194    16.0735 </r>
       <r>     1.7531     4.3876    16.3521 </r>
       <r>     1.8166     5.1232    16.6774 </r>
       <r>     1.8801     5.2936    17.0135 </r>
       <r>     1.9436     4.6113    17.3063 </r>
       <r>     2.0071     3.8172    17.5487 </r>
       <r>     2.0706     3.3633    17.7623 </r>
       <r>     2.1341     3.5577    17.9882 </r>
       <r>     2.1976     4.2408    18.2575 </r>
       <r>     2.2611     4.6386    18.5520 </r>
       <r>     2.3246     4.6433    18.8469 </r>
       <r>     2.3881     4.7169    19.1464 </r>
       <r>     2.4516     4.7445    19.4476 </r>
       <r>     2.5151     4.6409    19.7423 </r>
       <r>     2.5786     4.5354    20.0303 </r>
       <r>     2.6421     4.3464    20.3063 </r>
       <r>     2.7056     4.6008    20.5984 </r>
       <r>     2.7691     5.4428    20.9441 </r>
       <r>     2.8326     6.1818    21.3366 </r>
       <r>     2.8961     6.4732    21.7476 </r>
       <r>     2.9596     6.2804    22.1464 </r>
       <r>     3.0231     6.0980    22.5336 </r>
       <r>     3.0866     6.0582    22.9183 </r>
       <r>     3.1501     5.7919    23.2861 </r>
       <r>     3.2136     5.3772    23.6275 </r>
       <r>     3.2771     5.2925    23.9636 </r>
       <r>     3.3406     5.9567    24.3418 </r>
       <r>     3.4041     6.6539    24.7643 </r>
       <r>     3.4676     6.1652    25.1558 </r>
       <r>     3.5311     4.9611    25.4708 </r>
       <r>     3.5946     4.4573    25.7539 </r>
       <r>     3.6581     5.0581    26.0750 </r>
       <r>     3.7216     5.7357    26.4392 </r>
       <r>     3.7851     5.8599    26.8113 </r>
       <r>     3.8486     5.4572    27.1579 </r>
       <r>     3.9121     4.9137    27.4699 </r>
       <r>     3.9756     4.6816    27.7671 </r>
       <r>     4.0391     4.4755    28.0513 </r>
       <r>     4.1026     4.6288    28.3452 </r>
       <r>     4.1661     5.3937    28.6877 </r>
       <r>     4.2296     5.6046    29.0436 </r>
       <r>     4.2931     4.8036    29.3486 </r>
       <r>     4.3565     3.9110    29.5970 </r>
       <r>     4.4200     3.6166    29.8266 </r>
       <r>     4.4835     3.9754    30.0790 </r>
       <r>     4.5470     4.3081    30.3526 </r>
       <r>     4.6105     3.6743    30.5859 </r>
       <r>     4.6740     2.6313    30.7530 </r>
       <r>     4.7375     2.1445    30.8892 </r>
       <r>     4.8010     2.0928    31.0221 </r>
       <r>     4.8645     2.0383    31.1515 </r>
       <r>     4.9280     2.0820    31.2837 </r>
       <r>     4.9915     2.0570    31.4143 </r>
       <r>     5.0550     1.6298    31.5178 </r>
       <r>     5.1185     1.2858    31.5994 </r>
       <r>     5.1820     1.2294    31.6775 </r>
       <r>     5.2455     1.0928    31.7469 </r>
       <r>     5.3090     0.9600    31.8079 </r>
       <r>     5.3725     0.9457    31.8679 </r>
       <r>     5.4360     0.8416    31.9213 </r>
       <r>     5.4995     0.5935    31.9590 </r>
       <r>     5.5630     0.3469    31.9811 </r>
       <r>     5.6265     0.1874    31.9930 </r>
       <r>     5.6900     0.0841    31.9983 </r>
       <r>     5.7535     0.0232    31.9998 </r>
       <r>     5.8170     0.0033    32.0000 </r>
       <r>     5.8805     0.0002    32.0000 </r>
       <r>     5.9440     0.0000    32.0000 </r>
       <r>     6.0075     0.0002    32.0000 </r>
       <r>     6.0710     0.0029    32.0002 </r>
       <r>     6.1345     0.0208    32.0015 </r>
       <r>     6.1980     0.0760    32.0063 </r>
       <r>     6.2615     0.1554    32.0162 </r>
       <r>     6.3250     0.2661    32.0331 </r>
       <r>     6.3885     0.5746    32.0696 </r>
       <r>     6.4520     1.0514    32.1363 </r>
       <r>     6.5155     1.2695    32.2170 </r>
       <r>     6.5790     1.2437    32.2959 </r>
       <r>     6.6425     1.3621    32.3824 </r>
       <r>     6.7060     1.5950    32.4837 </r>
       <r>     6.7695     1.7102    32.5923 </r>
       <r>     6.8330     1.6226    32.6953 </r>
       <r>     6.8965     1.7209    32.8046 </r>
       <r>     6.9600     2.3869    32.9562 </r>
       <r>     7.0235     2.9059    33.1407 </r>
       <r>     7.0870     2.8128    33.3193 </r>
       <r>     7.1505     2.5150    33.4790 </r>
       <r>     7.2140     2.5359    33.6400 </r>
       <r>     7.2775     3.2403    33.8458 </r>
       <r>     7.3410     3.8828    34.0923 </r>
       <r>     7.4045     3.8120    34.3344 </r>
       <r>     7.4680     3.5775    34.5615 </r>
       <r>     7.5315     3.7935    34.8024 </r>
       <r>     7.5949     4.2806    35.0742 </r>
       <r>     7.6584     4.8186    35.3802 </r>
       <r>     7.7219     5.6335    35.7379 </r>
       <r>     7.7854     6.3596    36.1417 </r>
       <r>     7.8489     6.6573    36.5645 </r>
       <r>     7.9124     6.9196    37.0038 </r>
       <r>     7.9759     6.8473    37.4386 </r>
       <r>     8.0394     5.9220    37.8147 </r>
       <r>     8.1029     5.1926    38.1444 </r>
       <r>     8.1664     5.4949    38.4933 </r>
       <r>     8.2299     5.8327    38.8637 </r>
       <r>     8.2934     5.1346    39.1897 </r>
       <r>     8.3569     4.2248    39.4580 </r>
       <r>     8.4204     4.2708    39.7292 </r>
       <r>     8.4839     4.7195    40.0288 </r>
       <r>     8.5474     4.8918    40.3395 </r>
       <r>     8.6109     4.9242    40.6521 </r>
       <r>     8.6744     4.8304    40.9589 </r>
       <r>     8.7379     4.5235    41.2461 </r>
       <r>     8.8014     5.0618    41.5675 </r>
       <r>     8.8649     7.1706    42.0228 </r>
       <r>     8.9284     9.0319    42.5963 </r>
       <r>     8.9919     8.7044    43.1490 </r>
       <r>     9.0554     7.1625    43.6039 </r>
       <r>     9.1189     6.1573    43.9948 </r>
       <r>     9.1824     5.9980    44.3757 </r>
       <r>     9.2459     6.4029    44.7823 </r>
       <r>     9.3094     6.9017    45.2205 </r>
       <r>     9.3729     7.0073    45.6655 </r>
       <r>     9.4364     6.5337    46.0803 </r>
       <r>     9.4999     5.6716    46.4405 </r>
       <r>     9.5634     5.1046    46.7646 </r>
       <r>     9.6269     4.9786    47.0807 </r>
       <r>     9.6904     4.6658    47.3770 </r>
       <r>     9.7539     4.1122    47.6381 </r>
       <r>     9.8174     3.5867    47.8659 </r>
       <r>     9.8809     3.4997    48.0881 </r>
       <r>     9.9444     3.8098    48.3300 </r>
       <r>    10.0079     3.9885    48.5833 </r>
       <r>    10.0714     3.7539    48.8216 </r>
       <r>    10.1349     3.4390    49.0400 </r>
       <r>    10.1984     3.5740    49.2669 </r>
       <r>    10.2619     3.5866    49.4947 </r>
       <r>    10.3254     2.7185    49.6673 </r>
       <r>    10.3889     1.7033    49.7755 </r>
       <r>    10.4524     1.0996    49.8453 </r>
       <r>    10.5159     0.7725    49.8943 </r>
       <r>    10.5794     0.5618    49.9300 </r>
       <r>    10.6429     0.3849    49.9544 </r>
       <r>    10.7064     0.2546    49.9706 </r>
       <r>    10.7699     0.1813    49.9821 </r>
       <r>    10.8334     0.1440    49.9913 </r>
       <r>    10.8968     0.0916    49.9971 </r>
       <r>    10.9603     0.0367    49.9994 </r>
       <r>    11.0238     0.0083    49.9999 </r>
       <r>    11.0873     0.0010    50.0000 </r>
       <r>    11.1508     0.0001    50.0000 </r>
       <r>    11.2143     0.0000    50.0000 </r>
       <r>    11.2778     0.0000    50.0000 </r>
       <r>    11.3413     0.0000    50.0000 </r>
       <r>    11.4048     0.0000    50.0000 </r>
       <r>    11.4683     0.0000    50.0000 </r>
       <r>    11.5318     0.0000    50.0000 </r>
       <r>    11.5953     0.0000    50.0000 </r>
       <r>    11.6588     0.0000    50.0000 </r>
       <r>    11.7223     0.0000    50.0000 </r>
       <r>    11.7858     0.0000    50.0000 </r>
       <r>    11.8493     0.0000    50.0000 </r>
      </set>
     </set>
    </array>
   </total>
  </dos>
 </calculation>
 <structure name="finalpos" >
  <crystal>
   <varray name="basis" >
    <v>       5.46943781       0.00000000      -0.00000000 </v>
    <v>       0.00000000       5.46943781       0.00000000 </v>
    <v>      -0.00000000       0.00000000       5.46943781 </v>
   </varray>
   <i name="volume">    163.61686493 </i>
   <varray name="rec_basis" >
    <v>       0.18283415      -0.00000000       0.00000000 </v>
    <v>      -0.00000000       0.18283415      -0.00000000 </v>
    <v>       0.00000000      -0.00000000       0.18283415 </v>
   </varray>
  </crystal>
  <varray name="positions" >
   <v>      -0.00000000      -0.00000000       0.00000000 </v>
   <v>      -0.00000000       0.50000000       0.50000000 </v>
   <v>       0.50000000       0.00000000       0.50000000 </v>
   <v>       0.50000000       0.50000000      -0.00000000 </v>
   <v>       0.25000000       0.25000000       0.25000000 </v>
   <v>       0.75000000       0.75000000       0.25000000 </v>
   <v>       0.75000000       0.25000000       0.75000000 </v>
   <v>       0.25000000       0.75000000       0.75000000 </v>
  </varray>
 </structure>
</modeling>
