diamond Si                              
   5.43100000000000     
     1.021012    0.000000   -0.000000
    -0.000000    1.021012   -0.000000
    -0.000000    0.000000    1.021012
   Si
     8
Direct
  0.000000  0.000000  0.000000
  0.000000  0.500000  0.500000
  0.500000  0.000000  0.500000
  0.500000  0.500000  0.000000
  0.250000  0.250000  0.250000
  0.750000  0.750000  0.250000
  0.750000  0.250000  0.750000
  0.250000  0.750000  0.750000
 
   56   56   56
 -30.680     -26.106     -13.417      4.6028      24.231      41.815      54.646      61.441      62.392      58.825    
  52.658      45.730      38.912      32.573      26.930      22.078      18.018      14.695      12.018      9.8871    
  8.2049      6.8851      5.8566      5.0638      4.4642      4.0268      3.7291      3.5563      3.4996      3.5563    
  3.7291      4.0268      4.4642      5.0638      5.8566      6.8851      8.2049      9.8871      12.018      14.695    
  18.018      22.078      26.930      32.573      38.912      45.730      52.658      58.825      62.392      61.441    
  54.646      41.815      24.231      4.6028     -13.417     -26.106     -26.106     -21.691     -9.4505      7.9080    
  26.766      43.581      55.735      62.005      62.604      58.848      52.621      45.700      38.901      32.584    
  26.962      22.125      18.077      14.760      12.086      9.9553      8.2720      6.9503      5.9198      5.1251    
  4.5239      4.0851      3.7865      3.6131      3.5563      3.6131      3.7865      4.0851      4.5239      5.1251    
  5.9198      6.9503      8.2720      9.9553      12.086      14.760      18.077      22.125      26.962      32.584    
  38.901      45.700      52.621      58.848      62.604      62.005      55.735      43.581      26.766      7.9080    
 -9.4505     -21.691     -13.417     -9.4505      1.5249      17.018      33.710      48.368      58.633      63.450    
  63.091      58.837      52.472      45.588      38.854      32.608      27.050      22.264      18.251      14.954    
  12.289      10.161      8.4750      7.1484      6.1121      5.3118      4.7057      4.2631      3.9616      3.7865    
  3.7291      3.7865      3.9616      4.2631      4.7057      5.3118      6.1121      7.1484      8.4750      10.161    
  12.289      14.954      18.251      22.264      27.050      32.608      38.854      45.588      52.472      58.837    
  63.091      63.450      58.633      48.368      33.710      17.018      1.5249     -9.4505      4.6028      7.9080    
  17.018      29.769      43.289      54.814      62.365      65.131      63.465      58.588      52.120      45.332    
  38.730      32.619      27.179      22.483      18.533      15.275      12.630      10.507      8.8193      7.4860    
  6.4412      5.6321      5.0182      4.5691      4.2631      4.0851      4.0268      4.0851      4.2631      4.5691    
  5.0182      5.6321      6.4412      7.4860      8.8193      10.507      12.630      15.275      18.533      22.483    
  27.179      32.619      38.730      45.332      52.120      58.588      63.465      65.131      62.365      54.814    
  43.289      29.769      17.018      7.9080      24.231      26.766      33.710      43.289      53.172      61.144    
  65.679      66.240      63.260      57.869      51.450      44.856      38.477      32.580      27.321      22.765    
  18.913      15.718      13.108      11.000      9.3136      7.9743      6.9198      6.0999      5.4758      5.0182    
  4.7057      4.5239      4.4642      4.5239      4.7057      5.0182      5.4758      6.0999      6.9198      7.9743    
  9.3136      11.000      13.108      15.718      18.913      22.765      27.321      32.580      38.477      44.856    
  51.450      57.869      63.260      66.240      65.679      61.144      53.172      43.289      33.710      26.766    
  41.815      43.581      48.368      54.814      61.144      65.714      67.453      66.091      62.117      56.535    
  50.362      44.090      38.045      32.453      27.448      23.090      19.380      16.278      13.725      11.646    
  9.9702      8.6294      7.5666      6.7356      6.0999      5.6321      5.3118      5.1251      5.0638      5.1251    
  5.3118      5.6321      6.0999      6.7356      7.5666      8.6294      9.9702      11.646      13.725      16.278    
  19.380      23.090      27.448      32.453      38.045      44.090      50.362      56.535      62.117      66.091    
  67.453      65.714      61.144      54.814      48.368      43.581      54.646      55.735      58.633      62.365    
  65.679      67.453      67.027      64.348      59.922      54.558      48.804      42.994      37.399      32.208    
  27.537      23.439      19.920      16.952      14.484      12.456      10.805      9.4723      8.4066      7.5666    
  6.9198      6.4412      6.1121      5.9198      5.8566      5.9198      6.1121      6.4412      6.9198      7.5666    
  8.4066      9.4723      10.805      12.456      14.484      16.952      19.920      23.439      27.537      32.208    
  37.399      42.994      48.804      54.558      59.922      64.348      67.027      67.453      65.679      62.365    
  58.633      55.735      61.441      62.005      63.450      65.131      66.240      66.091      64.348      61.110    
  56.837      51.963      46.783      41.565      36.528      31.829      27.568      23.796      20.525      17.736    
  15.392      13.445      11.841      10.531      9.4723      8.6294      7.9743      7.4860      7.1484      6.9503    
  6.8851      6.9503      7.1484      7.4860      7.9743      8.6294      9.4723      10.531      11.841      13.445    
  15.392      17.736      20.525      23.796      27.568      31.829      36.528      41.565      46.783      51.963    
  56.837      61.110      64.348      66.091      66.240      65.131      63.450      62.005      62.392      62.604    
  63.091      63.465      63.260      62.117      59.922      56.837      53.077      48.844      44.361      39.837    
  35.445      31.316      27.537      24.156      21.191      18.635      16.461      14.631      13.104      11.841    
  10.805      9.9702      9.3136      8.8193      8.4750      8.2720      8.2049      8.2720      8.4750      8.8193    
  9.3136      9.9702      10.805      11.841      13.104      14.631      16.461      18.635      21.191      24.156    
  27.537      31.316      35.445      39.837      44.361      48.844      53.077      56.837      59.922      62.117    
  63.260      63.465      63.091      62.604      58.825      58.848      58.837      58.588      57.869      56.535    
  54.558      51.963      48.844      45.347      41.636      37.871      34.185      30.686      27.448      24.520    
  21.924      19.658      17.706      16.041      14.631      13.445      12.456      11.646      11.000      10.507    
  10.161      9.9553      9.8871      9.9553      10.161      10.507      11.000      11.646      12.456      13.445    
  14.631      16.041      17.706      19.658      21.924      24.520      27.448      30.686      34.185      37.871    
  41.636      45.347      48.844      51.963      54.558      56.535      57.869      58.588      58.837      58.848    
  52.658      52.621      52.472      52.120      51.450      50.362      48.804      46.783      44.361      41.636    
  38.726      35.745      32.797      29.967      27.321      24.902      22.734      20.821      19.152      17.706    
  16.461      15.392      14.484      13.725      13.108      12.630      12.289      12.086      12.018      12.086    
  12.289      12.630      13.108      13.725      14.484      15.392      16.461      17.706      19.152      20.821    
  22.734      24.902      27.321      29.967      32.797      35.745      38.726      41.636      44.361      46.783    
  48.804      50.362      51.450      52.120      52.472      52.621      45.730      45.700      45.588      45.332    
  44.856      44.090      42.994      41.565      39.837      37.871      35.745      33.540      31.335      29.196    
  27.179      25.319      23.639      22.143      20.821      19.658      18.635      17.736      16.952      16.278    
  15.718      15.275      14.954      14.760      14.695      14.760      14.954      15.275      15.718      16.278    
  16.952      17.736      18.635      19.658      20.821      22.143      23.639      25.319      27.179      29.196    
  31.335      33.540      35.745      37.871      39.837      41.565      42.994      44.090      44.856      45.332    
  45.588      45.700      38.912      38.901      38.854      38.730      38.477      38.045      37.399      36.528    
  35.445      34.185      32.797      31.335      29.857      28.415      27.050      25.792      24.655      23.639    
  22.734      21.924      21.191      20.525      19.920      19.380      18.913      18.533      18.251      18.077    
  18.018      18.077      18.251      18.533      18.913      19.380      19.920      20.525      21.191      21.924    
  22.734      23.639      24.655      25.792      27.050      28.415      29.857      31.335      32.797      34.185    
  35.445      36.528      37.399      38.045      38.477      38.730      38.854      38.901      32.573      32.584    
  32.608      32.619      32.580      32.453      32.208      31.829      31.316      30.686      29.967      29.196    
  28.415      27.660      26.962      26.337      25.792      25.319      24.902      24.520      24.156      23.796    
  23.439      23.090      22.765      22.483      22.264      22.125      22.078      22.125      22.264      22.483    
  22.765      23.090      23.439      23.796      24.156      24.520      24.902      25.319      25.792      26.337    
  26.962      27.660      28.415      29.196      29.967      30.686      31.316      31.829      32.208      32.453    
  32.580      32.619      32.608      32.584      26.930      26.962      27.050      27.179      27.321      27.448    
  27.537      27.568      27.537      27.448      27.321      27.179      27.050      26.962      26.930      26.962    
  27.050      27.179      27.321      27.448      27.537      27.568      27.537      27.448      27.321      27.179    
  27.050      26.962      26.930      26.962      27.050      27.179      27.321      27.448      27.537      27.568    
  27.537      27.448      27.321      27.179      27.050      26.962      26.930      26.962      27.050      27.179    
  27.321      27.448      27.537      27.568      27.537      27.448      27.321      27.179      27.050      26.962    
  22.078      22.125      22.264      22.483      22.765      23.090      23.439      23.796      24.156      24.520    
  24.902      25.319      25.792      26.337      26.962      27.660      28.415      29.196      29.967      30.686    
  31.316      31.829      32.208      32.453      32.580      32.619      32.608      32.584      32.573      32.584    
  32.608      32.619      32.580      32.453      32.208      31.829      31.316      30.686      29.967      29.196    
  28.415      27.660      26.962      26.337      25.792      25.319      24.902      24.520      24.156      23.796    
  23.439      23.090      22.765      22.483      22.264      22.125      18.018      18.077      18.251      18.533    
  18.913      19.380      19.920      20.525      21.191      21.924      22.734      23.639      24.655      25.792    
  27.050      28.415      29.857      31.335      32.797      34.185      35.445      36.528      37.399      38.045    
  38.477      38.730      38.854      38.901      38.912      38.901      38.854      38.730      38.477      38.045    
  37.399      36.528      35.445      34.185      32.797      31.335      29.857      28.415      27.050      25.792    
  24.655      23.639      22.734      21.924      21.191      20.525      19.920      19.380      18.913      18.533    
  18.251      18.077      14.695      14.760      14.954      15.275      15.718      16.278      16.952      17.736    
  18.635      19.658      20.821      22.143      23.639      25.319      27.179      29.196      31.335      33.540    
  35.745      37.871      39.837      41.565      42.994      44.090      44.856      45.332      45.588      45.700    
  45.730      45.700      45.588      45.332      44.856      44.090      42.994      41.565      39.837      37.871    
  35.745      33.540      31.335      29.196      27.179      25.319      23.639      22.143      20.821      19.658    
  18.635      17.736      16.952      16.278      15.718      15.275      14.954      14.760      12.018      12.086    
  12.289      12.630      13.108      13.725      14.484      15.392      16.461      17.706      19.152      20.821    
  22.734      24.902      27.321      29.967      32.797      35.745      38.726      41.636      44.361      46.783    
  48.804      50.362      51.450      52.120      52.472      52.621      52.658      52.621      52.472      52.120    
  51.450      50.362      48.804      46.783      44.361      41.636      38.726      35.745      32.797      29.967    
  27.321      24.902      22.734      20.821      19.152      17.706      16.461      15.392      14.484      13.725    
  13.108      12.630      12.289      12.086      9.8871      9.9553      10.161      10.507      11.000      11.646    
  12.456      13.445      14.631      16.041      17.706      19.658      21.924      24.520      27.448      30.686    
  34.185      37.871      41.636      45.347      48.844      51.963      54.558      56.535      57.869      58.588    
  58.837      58.848      58.825      58.848      58.837      58.588      57.869      56.535      54.558      51.963    
  48.844      45.347      41.636      37.871      34.185      30.686      27.448      24.520      21.924      19.658    
  17.706      16.041      14.631      13.445      12.456      11.646      11.000      10.507      10.161      9.9553    
  8.2049      8.2720      8.4750      8.8193      9.3136      9.9702      10.805      11.841      13.104      14.631    
  16.461      18.635      21.191      24.156      27.537      31.316      35.445      39.837      44.361      48.844    
  53.077      56.837      59.922      62.117      63.260      63.465      63.091      62.604      62.392      62.604    
  63.091      63.465      63.260      62.117      59.922      56.837      53.077      48.844      44.361      39.837    
  35.445      31.316      27.537      24.156      21.191      18.635      16.461      14.631      13.104      11.841    
  10.805      9.9702      9.3136      8.8193      8.4750      8.2720      6.8851      6.9503      7.1484      7.4860    
  7.9743      8.6294      9.4723      10.531      11.841      13.445      15.392      17.736      20.525      23.796    
  27.568      31.829      36.528      41.565      46.783      51.963      56.837      61.110      64.348      66.091    
  66.240      65.131      63.450      62.005      61.441      62.005      63.450      65.131      66.240      66.091    
  64.348      61.110      56.837      51.963      46.783      41.565      36.528      31.829      27.568      23.796    
  20.525      17.736      15.392      13.445      11.841      10.531      9.4723      8.6294      7.9743      7.4860    
  7.1484      6.9503      5.8566      5.9198      6.1121      6.4412      6.9198      7.5666      8.4066      9.4723    
  10.805      12.456      14.484      16.952      19.920      23.439      27.537      32.208      37.399      42.994    
  48.804      54.558      59.922      64.348      67.027      67.453      65.679      62.365      58.633      55.735    
  54.646      55.735      58.633      62.365      65.679      67.453      67.027      64.348      59.922      54.558    
  48.804      42.994      37.399      32.208      27.537      23.439      19.920      16.952      14.484      12.456    
  10.805      9.4723      8.4066      7.5666      6.9198      6.4412      6.1121      5.9198      5.0638      5.1251    
  5.3118      5.6321      6.0999      6.7356      7.5666      8.6294      9.9702      11.646      13.725      16.278    
  19.380      23.090      27.448      32.453      38.045      44.090      50.362      56.535      62.117      66.091    
  67.453      65.714      61.144      54.814      48.368      43.581      41.815      43.581      48.368      54.814    
  61.144      65.714      67.453      66.091      62.117      56.535      50.362      44.090      38.045      32.453    
  27.448      23.090      19.380      16.278      13.725      11.646      9.9702      8.6294      7.5666      6.7356    
  6.0999      5.6321      5.3118      5.1251      4.4642      4.5239      4.7057      5.0182      5.4758      6.0999    
  6.9198      7.9743      9.3136      11.000      13.108      15.718      18.913      22.765      27.321      32.580    
  38.477      44.856      51.450      57.869      63.260      66.240      65.679      61.144      53.172      43.289    
  33.710      26.766      24.231      26.766      33.710      43.289      53.172      61.144      65.679      66.240    
  63.260      57.869      51.450      44.856      38.477      32.580      27.321      22.765      18.913      15.718    
  13.108      11.000      9.3136      7.9743      6.9198      6.0999      5.4758      5.0182      4.7057      4.5239    
  4.0268      4.0851      4.2631      4.5691      5.0182      5.6321      6.4412      7.4860      8.8193      10.507    
  12.630      15.275      18.533      22.483      27.179      32.619      38.730      45.332      52.120      58.588    
  63.465      65.131      62.365      54.814      43.289      29.769      17.018      7.9080      4.6028      7.9080    
  17.018      29.769      43.289      54.814      62.365      65.131      63.465      58.588      52.120      45.332    
  38.730      32.619      27.179      22.483      18.533      15.275      12.630      10.507      8.8193      7.4860    
  6.4412      5.6321      5.0182      4.5691      4.2631      4.0851      3.7291      3.7865      3.9616      4.2631    
  4.7057      5.3118      6.1121      7.1484      8.4750      10.161      12.289      14.954      18.251      22.264    
  27.050      32.608      38.854      45.588      52.472      58.837      63.091      63.450      58.633      48.368    
  33.710      17.018      1.5249     -9.4505     -13.417     -9.4505      1.5249      17.018      33.710      48.368    
  58.633      63.450      63.091      58.837      52.472      45.588      38.854      32.608      27.050      22.264    
  18.251      14.954      12.289      10.161      8.4750      7.1484      6.1121      5.3118      4.7057      4.2631    
  3.9616      3.7865      3.5563      3.6131      3.7865      4.0851      4.5239      5.1251      5.9198      6.9503    
  8.2720      9.9553      12.086      14.760      18.077      22.125      26.962      32.584      38.901      45.700    
  52.621      58.848      62.604      62.005      55.735      43.581      26.766      7.9080     -9.4505     -21.691    
 -26.106     -21.691     -9.4505      7.9080      26.766      43.581      55.735      62.005      62.604      58.848    
  52.621      45.700      38.901      32.584      26.962      22.125      18.077      14.760      12.086      9.9553    
  8.2720      6.9503      5.9198      5.1251      4.5239      4.0851      3.7865      3.6131      3.4996      3.5563    
  3.7291      4.0268      4.4642      5.0638      5.8566      6.8851      8.2049      9.8871      12.018      14.695    
  18.018      22.078      26.930      32.573      38.912      45.730      52.658      58.825      62.392      61.441    
  54.646      41.815      24.231      4.6028     -13.417     -26.106     -30.680     -26.106     -13.417      4.6028    
  24.231      41.815      54.646      61.441      62.392      58.825      52.658      45.730      38.912      32.573    
  26.930      22.078      18.018      14.695      12.018      9.8871      8.2049      6.8851      5.8566      5.0638    
  4.4642      4.0268      3.7291      3.5563      3.5563      3.6131      3.7865      4.0851      4.5239      5.1251    
  5.9198      6.9503      8.2720      9.9553      12.086      14.760      18.077      22.125      26.962      32.584    
  38.901      45.700      52.621      58.848      62.604      62.005      55.735      43.581      26.766      7.9080    
 -9.4505     -21.691     -26.106     -21.691     -9.4505      7.9080      26.766      43.581      55.735      62.005    
  62.604      58.848      52.621      45.700      38.901      32.584      26.962      22.125      18.077      14.760    
  12.086      9.9553      8.2720      6.9503      5.9198      5.1251      4.5239      4.0851      3.7865      3.6131    
  3.7291      3.7865      3.9616      4.2631      4.7057      5.3118      6.1121      7.1484      8.4750      10.161    
  12.289      14.954      18.251      22.264      27.050      32.608      38.854      45.588      52.472      58.837    
  63.091      63.450      58.633      48.368      33.710      17.018      1.5249     -9.4505     -13.417     -9.4505    
  1.5249      17.018      33.710      48.368      58.633      63.450      63.091      58.837      52.472      45.588    
  38.854      32.608      27.050      22.264      18.251      14.954      12.289      10.161      8.4750      7.1484    
  6.1121      5.3118      4.7057      4.2631      3.9616      3.7865      4.0268      4.0851      4.2631      4.5691    
  5.0182      5.6321      6.4412      7.4860      8.8193      10.507      12.630      15.275      18.533      22.483    
  27.179      32.619      38.730      45.332      52.120      58.588      63.465      65.131      62.365      54.814    
  43.289      29.769      17.018      7.9080      4.6028      7.9080      17.018      29.769      43.289      54.814    
  62.365      65.131      63.465      58.588      52.120      45.332      38.730      32.619      27.179      22.483    
  18.533      15.275      12.630      10.507      8.8193      7.4860      6.4412      5.6321      5.0182      4.5691    
  4.2631      4.0851      4.4642      4.5239      4.7057      5.0182      5.4758      6.0999      6.9198      7.9743    
  9.3136      11.000      13.108      15.718      18.913      22.765      27.321      32.580      38.477      44.856    
  51.450      57.869      63.260      66.240      65.679      61.144      53.172      43.289      33.710      26.766    
  24.231      26.766      33.710      43.289      53.172      61.144      65.679      66.240      63.260      57.869    
  51.450      44.856      38.477      32.580      27.321      22.765      18.913      15.718      13.108      11.000    
  9.3136      7.9743      6.9198      6.0999      5.4758      5.0182      4.7057      4.5239      5.0638      5.1251    
  5.3118      5.6321      6.0999      6.7356      7.5666      8.6294      9.9702      11.646      13.725      16.278    
  19.380      23.090      27.448      32.453      38.045      44.090      50.362      56.535      62.117      66.091    
  67.453      65.714      61.144      54.814      48.368      43.581      41.815      43.581      48.368      54.814    
  61.144      65.714      67.453      66.091      62.117      56.535      50.362      44.090      38.045      32.453    
  27.448      23.090      19.380      16.278      13.725      11.646      9.9702      8.6294      7.5666      6.7356    
  6.0999      5.6321      5.3118      5.1251      5.8566      5.9198      6.1121      6.4412      6.9198      7.5666    
  8.4066      9.4723      10.805      12.456      14.484      16.952      19.920      23.439      27.537      32.208    
  37.399      42.994      48.804      54.558      59.922      64.348      67.027      67.453      65.679      62.365    
  58.633      55.735      54.646      55.735      58.633      62.365      65.679      67.453      67.027      64.348    
  59.922      54.558      48.804      42.994      37.399      32.208      27.537      23.439      19.920      16.952    
  14.484      12.456      10.805      9.4723      8.4066      7.5666      6.9198      6.4412      6.1121      5.9198    
  6.8851      6.9503      7.1484      7.4860      7.9743      8.6294      9.4723      10.531      11.841      13.445    
  15.392      17.736      20.525      23.796      27.568      31.829      36.528      41.565      46.783      51.963    
  56.837      61.110      64.348      66.091      66.240      65.131      63.450      62.005      61.441      62.005    
  63.450      65.131      66.240      66.091      64.348      61.110      56.837      51.963      46.783      41.565    
  36.528      31.829      27.568      23.796      20.525      17.736      15.392      13.445      11.841      10.531    
  9.4723      8.6294      7.9743      7.4860      7.1484      6.9503      8.2049      8.2720      8.4750      8.8193    
  9.3136      9.9702      10.805      11.841      13.104      14.631      16.461      18.635      21.191      24.156    
  27.537      31.316      35.445      39.837      44.361      48.844      53.077      56.837      59.922      62.117    
  63.260      63.465      63.091      62.604      62.392      62.604      63.091      63.465      63.260      62.117    
  59.922      56.837      53.077      48.844      44.361      39.837      35.445      31.316      27.537      24.156    
  21.191      18.635      16.461      14.631      13.104      11.841      10.805      9.9702      9.3136      8.8193    
  8.4750      8.2720      9.8871      9.9553      10.161      10.507      11.000      11.646      12.456      13.445    
  14.631      16.041      17.706      19.658      21.924      24.520      27.448      30.686      34.185      37.871    
  41.636      45.347      48.844      51.963      54.558      56.535      57.869      58.588      58.837      58.848    
  58.825      58.848      58.837      58.588      57.869      56.535      54.558      51.963      48.844      45.347    
  41.636      37.871      34.185      30.686      27.448      24.520      21.924      19.658      17.706      16.041    
  14.631      13.445      12.456      11.646      11.000      10.507      10.161      9.9553      12.018      12.086    
  12.289      12.630      13.108      13.725      14.484      15.392      16.461      17.706      19.152      20.821    
  22.734      24.902      27.321      29.967      32.797      35.745      38.726      41.636      44.361      46.783    
  48.804      50.362      51.450      52.120      52.472      52.621      52.658      52.621      52.472      52.120    
  51.450      50.362      48.804      46.783      44.361      41.636      38.726      35.745      32.797      29.967    
  27.321      24.902      22.734      20.821      19.152      17.706      16.461      15.392      14.484      13.725    
  13.108      12.630      12.289      12.086      14.695      14.760      14.954      15.275      15.718      16.278    
  16.952      17.736      18.635      19.658      20.821      22.143      23.639      25.319      27.179      29.196    
  31.335      33.540      35.745      37.871      39.837      41.565      42.994      44.090      44.856      45.332    
  45.588      45.700      45.730      45.700      45.588      45.332      44.856      44.090      42.994      41.565    
  39.837      37.871      35.745      33.540      31.335      29.196      27.179      25.319      23.639      22.143    
  20.821      19.658      18.635      17.736      16.952      16.278      15.718      15.275      14.954      14.760    
  18.018      18.077      18.251      18.533      18.913      19.380      19.920      20.525      21.191      21.924    
  22.734      23.639      24.655      25.792      27.050      28.415      29.857      31.335      32.797      34.185    
  35.445      36.528      37.399      38.045      38.477      38.730      38.854      38.901      38.912      38.901    
  38.854      38.730      38.477      38.045      37.399      36.528      35.445      34.185      32.797      31.335    
  29.857      28.415      27.050      25.792      24.655      23.639      22.734      21.924      21.191      20.525    
  19.920      19.380      18.913      18.533      18.251      18.077      22.078      22.125      22.264      22.483    
  22.765      23.090      23.439      23.796      24.156      24.520      24.902      25.319      25.792      26.337    
  26.962      27.660      28.415      29.196      29.967      30.686      31.316      31.829      32.208      32.453    
  32.580      32.619      32.608      32.584      32.573      32.584      32.608      32.619      32.580      32.453    
  32.208      31.829      31.316      30.686      29.967      29.196      28.415      27.660      26.962      26.337    
  25.792      25.319      24.902      24.520      24.156      23.796      23.439      23.090      22.765      22.483    
  22.264      22.125      26.930      26.962      27.050      27.179      27.321      27.448      27.537      27.568    
  27.537      27.448      27.321      27.179      27.050      26.962      26.930      26.962      27.050      27.179    
  27.321      27.448      27.537      27.568      27.537      27.448      27.321      27.179      27.050      26.962    
  26.930      26.962      27.050      27.179      27.321      27.448      27.537      27.568      27.537      27.448    
  27.321      27.179      27.050      26.962      26.930      26.962      27.050      27.179      27.321      27.448    
  27.537      27.568      27.537      27.448      27.321      27.179      27.050      26.962      32.573      32.584    
  32.608      32.619      32.580      32.453      32.208      31.829      31.316      30.686      29.967      29.196    
  28.415      27.660      26.962      26.337      25.792      25.319      24.902      24.520      24.156      23.796    
  23.439      23.090      22.765      22.483      22.264      22.125      22.078      22.125      22.264      22.483    