diamond Si                              
   5.43100000000000     
     1.006043    0.000000   -0.000000
    -0.000000    1.006043   -0.000000
    -0.000000    0.000000    1.006043
   Si
     8
Direct
  0.000000 -0.000000  0.000000
  0.000000  0.500000  0.500000
  0.500000  0.000000  0.500000
  0.500000  0.500000  0.000000
  0.250000  0.250000  0.250000
  0.750000  0.750000  0.250000
  0.750000  0.250000  0.750000
  0.250000  0.750000  0.750000
 
   56   56   56
 -.31050367439E+02 -.26361911060E+02 -.13366059363E+02 0.50540824758E+01 0.25050740379E+02
 0.42865845455E+02 0.55733732507E+02 0.62383155662E+02 0.63066682487E+02 0.59201439712E+02
 0.52790797392E+02 0.45702003364E+02 0.38772450545E+02 0.32367253150E+02 0.26695162657E+02
 0.21838894327E+02 0.17790736902E+02 0.14486001025E+02 0.11830420816E+02 0.97204832840E+01
 0.80571093499E+01 0.67535704241E+01 0.57387250627E+01 0.49569242903E+01 0.43660778013E+01
 0.39351744878E+01 0.36420783922E+01 0.34719289063E+01 0.34161482697E+01 0.34719289063E+01
 0.36420783922E+01 0.39351744878E+01 0.43660778013E+01 0.49569242903E+01 0.57387250627E+01
 0.67535704241E+01 0.80571093499E+01 0.97204832840E+01 0.11830420816E+02 0.14486001025E+02
 0.17790736902E+02 0.21838894327E+02 0.26695162657E+02 0.32367253150E+02 0.38772450545E+02
 0.45702003364E+02 0.52790797392E+02 0.59201439712E+02 0.63066682487E+02 0.62383155662E+02
 0.55733732507E+02 0.42865845455E+02 0.25050740379E+02 0.50540824758E+01 -.13366059363E+02
 -.26361911060E+02 -.26361911060E+02 -.21838487399E+02 -.93084973099E+01 0.84248932145E+01
 0.27624080397E+02 0.44645352351E+02 0.56818105258E+02 0.62931817722E+02 0.63260841817E+02
 0.59209562589E+02 0.52744280888E+02 0.45665798566E+02 0.38757629687E+02 0.32376332700E+02
 0.26725662086E+02 0.21885953311E+02 0.17848986248E+02 0.14550681512E+02 0.11897877490E+02
 0.97882336597E+01 0.81236808889E+01 0.68182517174E+01 0.58013172114E+01 0.50175363371E+01
 0.44249823272E+01 0.39927201902E+01 0.36986447990E+01 0.35279060712E+01 0.34719289063E+01
 0.35279060712E+01 0.36986447990E+01 0.39927201902E+01 0.44249823272E+01 0.50175363371E+01
 0.58013172114E+01 0.68182517174E+01 0.81236808889E+01 0.97882336597E+01 0.11897877490E+02
 0.14550681512E+02 0.17848986248E+02 0.21885953311E+02 0.26725662086E+02 0.32376332700E+02
 0.38757629687E+02 0.45665798566E+02 0.52744280888E+02 0.59209562589E+02 0.63260841817E+02
 0.62931817722E+02 0.56818105258E+02 0.44645352351E+02 0.27624080397E+02 0.84248932145E+01
 -.93084973099E+01 -.21838487399E+02 -.13366059363E+02 -.93084973099E+01 0.19072611495E+01
 0.17705832560E+02 0.34663164015E+02 0.49460326202E+02 0.59695681022E+02 0.64329079568E+02
 0.63693808392E+02 0.59154690872E+02 0.52569434630E+02 0.45535090909E+02 0.38698863968E+02
 0.32394226421E+02 0.26811063956E+02 0.22023300175E+02 0.18021609028E+02 0.14743951079E+02
 0.12100565094E+02 0.99926596632E+01 0.83252116672E+01 0.70145571484E+01 0.59916353827E+01
 0.52020692085E+01 0.46044653642E+01 0.41681544331E+01 0.38711493383E+01 0.36986447990E+01
 0.36420783922E+01 0.36986447990E+01 0.38711493383E+01 0.41681544331E+01 0.46044653642E+01
 0.52020692085E+01 0.59916353827E+01 0.70145571484E+01 0.83252116672E+01 0.99926596632E+01
 0.12100565094E+02 0.14743951079E+02 0.18021609028E+02 0.22023300175E+02 0.26811063956E+02
 0.32394226421E+02 0.38698863968E+02 0.45535090909E+02 0.52569434630E+02 0.59154690872E+02
 0.63693808392E+02 0.64329079568E+02 0.59695681022E+02 0.49460326202E+02 0.34663164015E+02
 0.17705832560E+02 0.19072611495E+01 -.93084973099E+01 0.50540824758E+01 0.84248932145E+01
 0.17705832560E+02 0.30663919905E+02 0.44345296790E+02 0.55915987780E+02 0.63372807063E+02
 0.65923477365E+02 0.63980057204E+02 0.58837682981E+02 0.52176653788E+02 0.45251535052E+02
 0.38557819832E+02 0.32395390381E+02 0.26934322035E+02 0.22239971259E+02 0.18302366987E+02
 0.15063439347E+02 0.12439305838E+02 0.10337147138E+02 0.86670412858E+01 0.73492123182E+01
 0.63173030607E+01 0.55186665302E+01 0.49129339013E+01 0.44699981564E+01 0.41681544331E+01
 0.39927201902E+01 0.39351744878E+01 0.39927201902E+01 0.41681544331E+01 0.44699981564E+01
 0.49129339013E+01 0.55186665302E+01 0.63173030607E+01 0.73492123182E+01 0.86670412858E+01
 0.10337147138E+02 0.12439305838E+02 0.15063439347E+02 0.18302366987E+02 0.22239971259E+02
 0.26934322035E+02 0.32395390381E+02 0.38557819832E+02 0.45251535052E+02 0.52176653788E+02
 0.58837682981E+02 0.63980057204E+02 0.65923477365E+02 0.63372807063E+02 0.55915987780E+02
 0.44345296790E+02 0.30663919905E+02 0.17705832560E+02 0.84248932145E+01 0.25050740379E+02
 0.27624080397E+02 0.34663164015E+02 0.44345296790E+02 0.54277952072E+02 0.62202215104E+02
 0.66581354797E+02 0.66904432944E+02 0.63658999977E+02 0.58036912990E+02 0.51454426123E+02
 0.44740958304E+02 0.38284093697E+02 0.32344747446E+02 0.27070906222E+02 0.22519472040E+02
 0.18681476676E+02 0.15505214086E+02 0.12915235883E+02 0.10827057157E+02 0.91578591652E+01
 0.78333541535E+01 0.67911181132E+01 0.59811541058E+01 0.53647867191E+01 0.49129339013E+01
 0.46044653642E+01 0.44249823272E+01 0.43660778013E+01 0.44249823272E+01 0.46044653642E+01
 0.49129339013E+01 0.53647867191E+01 0.59811541058E+01 0.67911181132E+01 0.78333541535E+01
 0.91578591652E+01 0.10827057157E+02 0.12915235883E+02 0.15505214086E+02 0.18681476676E+02
 0.22519472040E+02 0.27070906222E+02 0.32344747446E+02 0.38284093697E+02 0.44740958304E+02
 0.51454426123E+02 0.58036912990E+02 0.63658999977E+02 0.66904432944E+02 0.66581354797E+02
 0.62202215104E+02 0.54277952072E+02 0.44345296790E+02 0.34663164015E+02 0.27624080397E+02
 0.42865845455E+02 0.44645352351E+02 0.49460326202E+02 0.55915987780E+02 0.62202215104E+02
 0.66650908058E+02 0.68195281988E+02 0.66593901898E+02 0.62383922356E+02 0.56618220858E+02
 0.50308538598E+02 0.43937954143E+02 0.37830119857E+02 0.32206438646E+02 0.27193751652E+02
 0.22842439001E+02 0.19146933969E+02 0.16064360378E+02 0.13530013849E+02 0.11469805902E+02
 0.98098118525E+01 0.84827608244E+01 0.74314532712E+01 0.66096202652E+01 0.59811541058E+01
 0.55186665302E+01 0.52020692085E+01 0.50175363371E+01 0.49569242903E+01 0.50175363371E+01
 0.52020692085E+01 0.55186665302E+01 0.59811541058E+01 0.66096202652E+01 0.74314532712E+01
 0.84827608244E+01 0.98098118525E+01 0.11469805902E+02 0.13530013849E+02 0.16064360378E+02
 0.19146933969E+02 0.22842439001E+02 0.27193751652E+02 0.32206438646E+02 0.37830119857E+02
 0.43937954143E+02 0.50308538598E+02 0.56618220858E+02 0.62383922356E+02 0.66593901898E+02
 0.68195281988E+02 0.66650908058E+02 0.62202215104E+02 0.55915987780E+02 0.49460326202E+02
 0.44645352351E+02 0.55733732507E+02 0.56818105258E+02 0.59695681022E+02 0.63372807063E+02
 0.66581354797E+02 0.68195281988E+02 0.67566305507E+02 0.64673449319E+02 0.60061043867E+02
 0.54556997419E+02 0.48692265698E+02 0.42805628442E+02 0.37164005459E+02 0.31952130119E+02
 0.27278638956E+02 0.23190128092E+02 0.19686770924E+02 0.16736442245E+02 0.14286797741E+02
 0.12275591909E+02 0.10639159882E+02 0.93185677261E+01 0.82631134163E+01 0.74314532712E+01
 0.67911181132E+01 0.63173030607E+01 0.59916353827E+01 0.58013172114E+01 0.57387250627E+01
 0.58013172114E+01 0.59916353827E+01 0.63173030607E+01 0.67911181132E+01 0.74314532712E+01
 0.82631134163E+01 0.93185677261E+01 0.10639159882E+02 0.12275591909E+02 0.14286797741E+02
 0.16736442245E+02 0.19686770924E+02 0.23190128092E+02 0.27278638956E+02 0.31952130119E+02
 0.37164005459E+02 0.42805628442E+02 0.48692265698E+02 0.54556997419E+02 0.60061043867E+02
 0.64673449319E+02 0.67566305507E+02 0.68195281988E+02 0.66581354797E+02 0.63372807063E+02
 0.59695681022E+02 0.56818105258E+02 0.62383155662E+02 0.62931817722E+02 0.64329079568E+02
 0.65923477365E+02 0.66904432944E+02 0.66593901898E+02 0.64673449319E+02 0.61270399428E+02
 0.56865357579E+02 0.51881755075E+02 0.46618304660E+02 0.41344833027E+02 0.36276817595E+02
 0.31566860752E+02 0.27308909382E+02 0.23548173452E+02 0.20291981651E+02 0.17519725266E+02
 0.15191923595E+02 0.13258713158E+02 0.11667417113E+02 0.10368391190E+02 0.93185677261E+01
 0.84827608244E+01 0.78333541535E+01 0.73492123182E+01 0.70145571484E+01 0.68182517174E+01
 0.67535704241E+01 0.68182517174E+01 0.70145571484E+01 0.73492123182E+01 0.78333541535E+01
 0.84827608244E+01 0.93185677261E+01 0.10368391190E+02 0.11667417113E+02 0.13258713158E+02
 0.15191923595E+02 0.17519725266E+02 0.20291981651E+02 0.23548173452E+02 0.27308909382E+02
 0.31566860752E+02 0.36276817595E+02 0.41344833027E+02 0.46618304660E+02 0.51881755075E+02
 0.56865357579E+02 0.61270399428E+02 0.64673449319E+02 0.66593901898E+02 0.66904432944E+02
 0.65923477365E+02 0.64329079568E+02 0.62931817722E+02 0.63066682487E+02 0.63260841817E+02
 0.63693808392E+02 0.63980057204E+02 0.63658999977E+02 0.62383922356E+02 0.60061043867E+02
 0.56865357579E+02 0.53007002331E+02 0.48693888255E+02 0.44152623325E+02 0.39592283364E+02
 0.35183479757E+02 0.31051534829E+02 0.27278638956E+02 0.23909788523E+02 0.20959351717E+02
 0.18417465083E+02 0.16256662376E+02 0.14438917737E+02 0.12922476527E+02 0.11667417113E+02
 0.10639159882E+02 0.98098118525E+01 0.91578591652E+01 0.86670412858E+01 0.83252116672E+01
 0.81236808889E+01 0.80571093499E+01 0.81236808889E+01 0.83252116672E+01 0.86670412858E+01
 0.91578591652E+01 0.98098118525E+01 0.10639159882E+02 0.11667417113E+02 0.12922476527E+02
 0.14438917737E+02 0.16256662376E+02 0.18417465083E+02 0.20959351717E+02 0.23909788523E+02
 0.27278638956E+02 0.31051534829E+02 0.35183479757E+02 0.39592283364E+02 0.44152623325E+02
 0.48693888255E+02 0.53007002331E+02 0.56865357579E+02 0.60061043867E+02 0.62383922356E+02
 0.63658999977E+02 0.63980057204E+02 0.63693808392E+02 0.63260841817E+02 0.59201439712E+02
 0.59209562589E+02 0.59154690872E+02 0.58837682981E+02 0.58036912990E+02 0.56618220858E+02
 0.54556997419E+02 0.51881755075E+02 0.48693888255E+02 0.45143428155E+02 0.41396777000E+02
 0.37611018095E+02 0.33918738943E+02 0.30422273248E+02 0.27193751652E+02 0.24277510288E+02
 0.21693147605E+02 0.19439215265E+02 0.17498076118E+02 0.15841899225E+02 0.14438917737E+02
 0.13258713158E+02 0.12275591909E+02 0.11469805902E+02 0.10827057157E+02 0.10337147138E+02
 0.99926596632E+01 0.97882336597E+01 0.97204832840E+01 0.97882336597E+01 0.99926596632E+01
 0.10337147138E+02 0.10827057157E+02 0.11469805902E+02 0.12275591909E+02 0.13258713158E+02
 0.14438917737E+02 0.15841899225E+02 0.17498076118E+02 0.19439215265E+02 0.21693147605E+02
 0.24277510288E+02 0.27193751652E+02 0.30422273248E+02 0.33918738943E+02 0.37611018095E+02
 0.41396777000E+02 0.45143428155E+02 0.48693888255E+02 0.51881755075E+02 0.54556997419E+02
 0.56618220858E+02 0.58036912990E+02 0.58837682981E+02 0.59154690872E+02 0.59209562589E+02
 0.52790797392E+02 0.52744280888E+02 0.52569434630E+02 0.52176653788E+02 0.51454426123E+02
 0.50308538598E+02 0.48692265698E+02 0.46618304660E+02 0.44152623325E+02 0.41396777000E+02
 0.38467221055E+02 0.35478160759E+02 0.32530673778E+02 0.29707449410E+02 0.27070906222E+02
 0.24662802035E+02 0.22504768719E+02 0.20600215089E+02 0.18938066324E+02 0.17498076118E+02
 0.16256662376E+02 0.15191923595E+02 0.14286797741E+02 0.13530013849E+02 0.12915235883E+02
 0.12439305838E+02 0.12100565094E+02 0.11897877490E+02 0.11830420816E+02 0.11897877490E+02
 0.12100565094E+02 0.12439305838E+02 0.12915235883E+02 0.13530013849E+02 0.14286797741E+02
 0.15191923595E+02 0.16256662376E+02 0.17498076118E+02 0.18938066324E+02 0.20600215089E+02
 0.22504768719E+02 0.24662802035E+02 0.27070906222E+02 0.29707449410E+02 0.32530673778E+02
 0.35478160759E+02 0.38467221055E+02 0.41396777000E+02 0.44152623325E+02 0.46618304660E+02
 0.48692265698E+02 0.50308538598E+02 0.51454426123E+02 0.52176653788E+02 0.52569434630E+02
 0.52744280888E+02 0.45702003364E+02 0.45665798566E+02 0.45535090909E+02 0.45251535052E+02
 0.44740958304E+02 0.43937954143E+02 0.42805628442E+02 0.41344833027E+02 0.39592283364E+02
 0.37611018095E+02 0.35478160759E+02 0.33273960573E+02 0.31073851639E+02 0.28943286761E+02
 0.26934322035E+02 0.25083329836E+02 0.23410035887E+02 0.21918483296E+02 0.20600215089E+02
 0.19439215265E+02 0.18417465083E+02 0.17519725266E+02 0.16736442245E+02 0.16064360378E+02
 0.15505214086E+02 0.15063439347E+02 0.14743951079E+02 0.14550681512E+02 0.14486001025E+02
 0.14550681512E+02 0.14743951079E+02 0.15063439347E+02 0.15505214086E+02 0.16064360378E+02
 0.16736442245E+02 0.17519725266E+02 0.18417465083E+02 0.19439215265E+02 0.20600215089E+02
 0.21918483296E+02 0.23410035887E+02 0.25083329836E+02 0.26934322035E+02 0.28943286761E+02
 0.31073851639E+02 0.33273960573E+02 0.35478160759E+02 0.37611018095E+02 0.39592283364E+02
 0.41344833027E+02 0.42805628442E+02 0.43937954143E+02 0.44740958304E+02 0.45251535052E+02
 0.45535090909E+02 0.45665798566E+02 0.38772450545E+02 0.38757629687E+02 0.38698863968E+02
 0.38557819832E+02 0.38284093697E+02 0.37830119857E+02 0.37164005459E+02 0.36276817595E+02
 0.35183479757E+02 0.33918738943E+02 0.32530673778E+02 0.31073851639E+02 0.29603188728E+02
 0.28168694367E+02 0.26811063956E+02 0.25558387397E+02 0.24424571534E+02 0.23410035887E+02
 0.22504768719E+02 0.21693147605E+02 0.20959351717E+02 0.20291981651E+02 0.19686770924E+02
 0.19146933969E+02 0.18681476676E+02 0.18302366987E+02 0.18021609028E+02 0.17848986248E+02
 0.17790736902E+02 0.17848986248E+02 0.18021609028E+02 0.18302366987E+02 0.18681476676E+02
 0.19146933969E+02 0.19686770924E+02 0.20291981651E+02 0.20959351717E+02 0.21693147605E+02
 0.22504768719E+02 0.23410035887E+02 0.24424571534E+02 0.25558387397E+02 0.26811063956E+02
 0.28168694367E+02 0.29603188728E+02 0.31073851639E+02 0.32530673778E+02 0.33918738943E+02
 0.35183479757E+02 0.36276817595E+02 0.37164005459E+02 0.37830119857E+02 0.38284093697E+02
 0.38557819832E+02 0.38698863968E+02 0.38757629687E+02 0.32367253150E+02 0.32376332700E+02
 0.32394226421E+02 0.32395390381E+02 0.32344747446E+02 0.32206438646E+02 0.31952130119E+02
 0.31566860752E+02 0.31051534829E+02 0.30422273248E+02 0.29707449410E+02 0.28943286761E+02
 0.28168694367E+02 0.27419915924E+02 0.26725662086E+02 0.26103521118E+02 0.25558387397E+02
 0.25083329836E+02 0.24662802035E+02 0.24277510288E+02 0.23909788523E+02 0.23548173452E+02
 0.23190128092E+02 0.22842439001E+02 0.22519472040E+02 0.22239971259E+02 0.22023300175E+02
 0.21885953311E+02 0.21838894327E+02 0.21885953311E+02 0.22023300175E+02 0.22239971259E+02
 0.22519472040E+02 0.22842439001E+02 0.23190128092E+02 0.23548173452E+02 0.23909788523E+02
 0.24277510288E+02 0.24662802035E+02 0.25083329836E+02 0.25558387397E+02 0.26103521118E+02
 0.26725662086E+02 0.27419915924E+02 0.28168694367E+02 0.28943286761E+02 0.29707449410E+02
 0.30422273248E+02 0.31051534829E+02 0.31566860752E+02 0.31952130119E+02 0.32206438646E+02
 0.32344747446E+02 0.32395390381E+02 0.32394226421E+02 0.32376332700E+02 0.26695162657E+02
 0.26725662086E+02 0.26811063956E+02 0.26934322035E+02 0.27070906222E+02 0.27193751652E+02
 0.27278638956E+02 0.27308909382E+02 0.27278638956E+02 0.27193751652E+02 0.27070906222E+02
 0.26934322035E+02 0.26811063956E+02 0.26725662086E+02 0.26695162657E+02 0.26725662086E+02
 0.26811063956E+02 0.26934322035E+02 0.27070906222E+02 0.27193751652E+02 0.27278638956E+02
 0.27308909382E+02 0.27278638956E+02 0.27193751652E+02 0.27070906222E+02 0.26934322035E+02
 0.26811063956E+02 0.26725662086E+02 0.26695162657E+02 0.26725662086E+02 0.26811063956E+02
 0.26934322035E+02 0.27070906222E+02 0.27193751652E+02 0.27278638956E+02 0.27308909382E+02
 0.27278638956E+02 0.27193751652E+02 0.27070906222E+02 0.26934322035E+02 0.26811063956E+02
 0.26725662086E+02 0.26695162657E+02 0.26725662086E+02 0.26811063956E+02 0.26934322035E+02
 0.27070906222E+02 0.27193751652E+02 0.27278638956E+02 0.27308909382E+02 0.27278638956E+02
 0.27193751652E+02 0.27070906222E+02 0.26934322035E+02 0.26811063956E+02 0.26725662086E+02
 0.21838894327E+02 0.21885953311E+02 0.22023300175E+02 0.22239971259E+02 0.22519472040E+02
 0.22842439001E+02 0.23190128092E+02 0.23548173452E+02 0.23909788523E+02 0.24277510288E+02
 0.24662802035E+02 0.25083329836E+02 0.25558387397E+02 0.26103521118E+02 0.26725662086E+02
 0.27419915924E+02 0.28168694367E+02 0.28943286761E+02 0.29707449410E+02 0.30422273248E+02
 0.31051534829E+02 0.31566860752E+02 0.31952130119E+02 0.32206438646E+02 0.32344747446E+02
 0.32395390381E+02 0.32394226421E+02 0.32376332700E+02 0.32367253150E+02 0.32376332700E+02
 0.32394226421E+02 0.32395390381E+02 0.32344747446E+02 0.32206438646E+02 0.31952130119E+02
 0.31566860752E+02 0.31051534829E+02 0.30422273248E+02 0.29707449410E+02 0.28943286761E+02
 0.28168694367E+02 0.27419915924E+02 0.26725662086E+02 0.26103521118E+02 0.25558387397E+02
 0.25083329836E+02 0.24662802035E+02 0.24277510288E+02 0.23909788523E+02 0.23548173452E+02
 0.23190128092E+02 0.22842439001E+02 0.22519472040E+02 0.22239971259E+02 0.22023300175E+02
 0.21885953311E+02 0.17790736902E+02 0.17848986248E+02 0.18021609028E+02 0.18302366987E+02
 0.18681476676E+02 0.19146933969E+02 0.19686770924E+02 0.20291981651E+02 0.20959351717E+02
 0.21693147605E+02 0.22504768719E+02 0.23410035887E+02 0.24424571534E+02 0.25558387397E+02
 0.26811063956E+02 0.28168694367E+02 0.29603188728E+02 0.31073851639E+02 0.32530673778E+02
 0.33918738943E+02 0.35183479757E+02 0.36276817595E+02 0.37164005459E+02 0.37830119857E+02
 0.38284093697E+02 0.38557819832E+02 0.38698863968E+02 0.38757629687E+02 0.38772450545E+02
 0.38757629687E+02 0.38698863968E+02 0.38557819832E+02 0.38284093697E+02 0.37830119857E+02
 0.37164005459E+02 0.36276817595E+02 0.35183479757E+02 0.33918738943E+02 0.32530673778E+02
 0.31073851639E+02 0.29603188728E+02 0.28168694367E+02 0.26811063956E+02 0.25558387397E+02
 0.24424571534E+02 0.23410035887E+02 0.22504768719E+02 0.21693147605E+02 0.20959351717E+02
 0.20291981651E+02 0.19686770924E+02 0.19146933969E+02 0.18681476676E+02 0.18302366987E+02
 0.18021609028E+02 0.17848986248E+02 0.14486001025E+02 0.14550681512E+02 0.14743951079E+02
 0.15063439347E+02 0.15505214086E+02 0.16064360378E+02 0.16736442245E+02 0.17519725266E+02
 0.18417465083E+02 0.19439215265E+02 0.20600215089E+02 0.21918483296E+02 0.23410035887E+02
 0.25083329836E+02 0.26934322035E+02 0.28943286761E+02 0.31073851639E+02 0.33273960573E+02
 0.35478160759E+02 0.37611018095E+02 0.39592283364E+02 0.41344833027E+02 0.42805628442E+02
 0.43937954143E+02 0.44740958304E+02 0.45251535052E+02 0.45535090909E+02 0.45665798566E+02
 0.45702003364E+02 0.45665798566E+02 0.45535090909E+02 0.45251535052E+02 0.44740958304E+02
 0.43937954143E+02 0.42805628442E+02 0.41344833027E+02 0.39592283364E+02 0.37611018095E+02
 0.35478160759E+02 0.33273960573E+02 0.31073851639E+02 0.28943286761E+02 0.26934322035E+02
 0.25083329836E+02 0.23410035887E+02 0.21918483296E+02 0.20600215089E+02 0.19439215265E+02
 0.18417465083E+02 0.17519725266E+02 0.16736442245E+02 0.16064360378E+02 0.15505214086E+02
 0.15063439347E+02 0.14743951079E+02 0.14550681512E+02 0.11830420816E+02 0.11897877490E+02
 0.12100565094E+02 0.12439305838E+02 0.12915235883E+02 0.13530013849E+02 0.14286797741E+02
 0.15191923595E+02 0.16256662376E+02 0.17498076118E+02 0.18938066324E+02 0.20600215089E+02
 0.22504768719E+02 0.24662802035E+02 0.27070906222E+02 0.29707449410E+02 0.32530673778E+02
 0.35478160759E+02 0.38467221055E+02 0.41396777000E+02 0.44152623325E+02 0.46618304660E+02
 0.48692265698E+02 0.50308538598E+02 0.51454426123E+02 0.52176653788E+02 0.52569434630E+02
 0.52744280888E+02 0.52790797392E+02 0.52744280888E+02 0.52569434630E+02 0.52176653788E+02
 0.51454426123E+02 0.50308538598E+02 0.48692265698E+02 0.46618304660E+02 0.44152623325E+02
 0.41396777000E+02 0.38467221055E+02 0.35478160759E+02 0.32530673778E+02 0.29707449410E+02
 0.27070906222E+02 0.24662802035E+02 0.22504768719E+02 0.20600215089E+02 0.18938066324E+02
 0.17498076118E+02 0.16256662376E+02 0.15191923595E+02 0.14286797741E+02 0.13530013849E+02
 0.12915235883E+02 0.12439305838E+02 0.12100565094E+02 0.11897877490E+02 0.97204832840E+01
 0.97882336597E+01 0.99926596632E+01 0.10337147138E+02 0.10827057157E+02 0.11469805902E+02
 0.12275591909E+02 0.13258713158E+02 0.14438917737E+02 0.15841899225E+02 0.17498076118E+02
 0.19439215265E+02 0.21693147605E+02 0.24277510288E+02 0.27193751652E+02 0.30422273248E+02
 0.33918738943E+02 0.37611018095E+02 0.41396777000E+02 0.45143428155E+02 0.48693888255E+02
 0.51881755075E+02 0.54556997419E+02 0.56618220858E+02 0.58036912990E+02 0.58837682981E+02
 0.59154690872E+02 0.59209562589E+02 0.59201439712E+02 0.59209562589E+02 0.59154690872E+02
 0.58837682981E+02 0.58036912990E+02 0.56618220858E+02 0.54556997419E+02 0.51881755075E+02
 0.48693888255E+02 0.45143428155E+02 0.41396777000E+02 0.37611018095E+02 0.33918738943E+02
 0.30422273248E+02 0.27193751652E+02 0.24277510288E+02 0.21693147605E+02 0.19439215265E+02
 0.17498076118E+02 0.15841899225E+02 0.14438917737E+02 0.13258713158E+02 0.12275591909E+02
 0.11469805902E+02 0.10827057157E+02 0.10337147138E+02 0.99926596632E+01 0.97882336597E+01
 0.80571093499E+01 0.81236808889E+01 0.83252116672E+01 0.86670412858E+01 0.91578591652E+01
 0.98098118525E+01 0.10639159882E+02 0.11667417113E+02 0.12922476527E+02 0.14438917737E+02
 0.16256662376E+02 0.18417465083E+02 0.20959351717E+02 0.23909788523E+02 0.27278638956E+02
 0.31051534829E+02 0.35183479757E+02 0.39592283364E+02 0.44152623325E+02 0.48693888255E+02
 0.53007002331E+02 0.56865357579E+02 0.60061043867E+02 0.62383922356E+02 0.63658999977E+02
 0.63980057204E+02 0.63693808392E+02 0.63260841817E+02 0.63066682487E+02 0.63260841817E+02
 0.63693808392E+02 0.63980057204E+02 0.63658999977E+02 0.62383922356E+02 0.60061043867E+02
 0.56865357579E+02 0.53007002331E+02 0.48693888255E+02 0.44152623325E+02 0.39592283364E+02
 0.35183479757E+02 0.31051534829E+02 0.27278638956E+02 0.23909788523E+02 0.20959351717E+02
 0.18417465083E+02 0.16256662376E+02 0.14438917737E+02 0.12922476527E+02 0.11667417113E+02
 0.10639159882E+02 0.98098118525E+01 0.91578591652E+01 0.86670412858E+01 0.83252116672E+01
 0.81236808889E+01 0.67535704241E+01 0.68182517174E+01 0.70145571484E+01 0.73492123182E+01
 0.78333541535E+01 0.84827608244E+01 0.93185677261E+01 0.10368391190E+02 0.11667417113E+02
 0.13258713158E+02 0.15191923595E+02 0.17519725266E+02 0.20291981651E+02 0.23548173452E+02
 0.27308909382E+02 0.31566860752E+02 0.36276817595E+02 0.41344833027E+02 0.46618304660E+02
 0.51881755075E+02 0.56865357579E+02 0.61270399428E+02 0.64673449319E+02 0.66593901898E+02
 0.66904432944E+02 0.65923477365E+02 0.64329079568E+02 0.62931817722E+02 0.62383155662E+02
 0.62931817722E+02 0.64329079568E+02 0.65923477365E+02 0.66904432944E+02 0.66593901898E+02
 0.64673449319E+02 0.61270399428E+02 0.56865357579E+02 0.51881755075E+02 0.46618304660E+02
 0.41344833027E+02 0.36276817595E+02 0.31566860752E+02 0.27308909382E+02 0.23548173452E+02
 0.20291981651E+02 0.17519725266E+02 0.15191923595E+02 0.13258713158E+02 0.11667417113E+02
 0.10368391190E+02 0.93185677261E+01 0.84827608244E+01 0.78333541535E+01 0.73492123182E+01
 0.70145571484E+01 0.68182517174E+01 0.57387250627E+01 0.58013172114E+01 0.59916353827E+01
 0.63173030607E+01 0.67911181132E+01 0.74314532712E+01 0.82631134163E+01 0.93185677261E+01
 0.10639159882E+02 0.12275591909E+02 0.14286797741E+02 0.16736442245E+02 0.19686770924E+02
 0.23190128092E+02 0.27278638956E+02 0.31952130119E+02 0.37164005459E+02 0.42805628442E+02
 0.48692265698E+02 0.54556997419E+02 0.60061043867E+02 0.64673449319E+02 0.67566305507E+02
 0.68195281988E+02 0.66581354797E+02 0.63372807063E+02 0.59695681022E+02 0.56818105258E+02
 0.55733732507E+02 0.56818105258E+02 0.59695681022E+02 0.63372807063E+02 0.66581354797E+02
 0.68195281988E+02 0.67566305507E+02 0.64673449319E+02 0.60061043867E+02 0.54556997419E+02
 0.48692265698E+02 0.42805628442E+02 0.37164005459E+02 0.31952130119E+02 0.27278638956E+02
 0.23190128092E+02 0.19686770924E+02 0.16736442245E+02 0.14286797741E+02 0.12275591909E+02
 0.10639159882E+02 0.93185677261E+01 0.82631134163E+01 0.74314532712E+01 0.67911181132E+01
 0.63173030607E+01 0.59916353827E+01 0.58013172114E+01 0.49569242903E+01 0.50175363371E+01
 0.52020692085E+01 0.55186665302E+01 0.59811541058E+01 0.66096202652E+01 0.74314532712E+01
 0.84827608244E+01 0.98098118525E+01 0.11469805902E+02 0.13530013849E+02 0.16064360378E+02
 0.19146933969E+02 0.22842439001E+02 0.27193751652E+02 0.32206438646E+02 0.37830119857E+02
 0.43937954143E+02 0.50308538598E+02 0.56618220858E+02 0.62383922356E+02 0.66593901898E+02
 0.68195281988E+02 0.66650908058E+02 0.62202215104E+02 0.55915987780E+02 0.49460326202E+02
 0.44645352351E+02 0.42865845455E+02 0.44645352351E+02 0.49460326202E+02 0.55915987780E+02
 0.62202215104E+02 0.66650908058E+02 0.68195281988E+02 0.66593901898E+02 0.62383922356E+02
 0.56618220858E+02 0.50308538598E+02 0.43937954143E+02 0.37830119857E+02 0.32206438646E+02
 0.27193751652E+02 0.22842439001E+02 0.19146933969E+02 0.16064360378E+02 0.13530013849E+02
 0.11469805902E+02 0.98098118525E+01 0.84827608244E+01 0.74314532712E+01 0.66096202652E+01
 0.59811541058E+01 0.55186665302E+01 0.52020692085E+01 0.50175363371E+01 0.43660778013E+01
 0.44249823272E+01 0.46044653642E+01 0.49129339013E+01 0.53647867191E+01 0.59811541058E+01
 0.67911181132E+01 0.78333541535E+01 0.91578591652E+01 0.10827057157E+02 0.12915235883E+02
 0.15505214086E+02 0.18681476676E+02 0.22519472040E+02 0.27070906222E+02 0.32344747446E+02
 0.38284093697E+02 0.44740958304E+02 0.51454426123E+02 0.58036912990E+02 0.63658999977E+02
 0.66904432944E+02 0.66581354797E+02 0.62202215104E+02 0.54277952072E+02 0.44345296790E+02
 0.34663164015E+02 0.27624080397E+02 0.25050740379E+02 0.27624080397E+02 0.34663164015E+02
 0.44345296790E+02 0.54277952072E+02 0.62202215104E+02 0.66581354797E+02 0.66904432944E+02
 0.63658999977E+02 0.58036912990E+02 0.51454426123E+02 0.44740958304E+02 0.38284093697E+02
 0.32344747446E+02 0.27070906222E+02 0.22519472040E+02 0.18681476676E+02 0.15505214086E+02
 0.12915235883E+02 0.10827057157E+02 0.91578591652E+01 0.78333541535E+01 0.67911181132E+01
 0.59811541058E+01 0.53647867191E+01 0.49129339013E+01 0.46044653642E+01 0.44249823272E+01
 0.39351744878E+01 0.39927201902E+01 0.41681544331E+01 0.44699981564E+01 0.49129339013E+01
 0.55186665302E+01 0.63173030607E+01 0.73492123182E+01 0.86670412858E+01 0.10337147138E+02
 0.12439305838E+02 0.15063439347E+02 0.18302366987E+02 0.22239971259E+02 0.26934322035E+02
 0.32395390381E+02 0.38557819832E+02 0.45251535052E+02 0.52176653788E+02 0.58837682981E+02
 0.63980057204E+02 0.65923477365E+02 0.63372807063E+02 0.55915987780E+02 0.44345296790E+02
 0.30663919905E+02 0.17705832560E+02 0.84248932145E+01 0.50540824758E+01 0.84248932145E+01
 0.17705832560E+02 0.30663919905E+02 0.44345296790E+02 0.55915987780E+02 0.63372807063E+02
 0.65923477365E+02 0.63980057204E+02 0.58837682981E+02 0.52176653788E+02 0.45251535052E+02
 0.38557819832E+02 0.32395390381E+02 0.26934322035E+02 0.22239971259E+02 0.18302366987E+02
 0.15063439347E+02 0.12439305838E+02 0.10337147138E+02 0.86670412858E+01 0.73492123182E+01
 0.63173030607E+01 0.55186665302E+01 0.49129339013E+01 0.44699981564E+01 0.41681544331E+01
 0.39927201902E+01 0.36420783922E+01 0.36986447990E+01 0.38711493383E+01 0.41681544331E+01
 0.46044653642E+01 0.52020692085E+01 0.59916353827E+01 0.70145571484E+01 0.83252116672E+01
 0.99926596632E+01 0.12100565094E+02 0.14743951079E+02 0.18021609028E+02 0.22023300175E+02
 0.26811063956E+02 0.32394226421E+02 0.38698863968E+02 0.45535090909E+02 0.52569434630E+02
 0.59154690872E+02 0.63693808392E+02 0.64329079568E+02 0.59695681022E+02 0.49460326202E+02
 0.34663164015E+02 0.17705832560E+02 0.19072611495E+01 -.93084973099E+01 -.13366059363E+02
 -.93084973099E+01 0.19072611495E+01 0.17705832560E+02 0.34663164015E+02 0.49460326202E+02
 0.59695681022E+02 0.64329079568E+02 0.63693808392E+02 0.59154690872E+02 0.52569434630E+02
 0.45535090909E+02 0.38698863968E+02 0.32394226421E+02 0.26811063956E+02 0.22023300175E+02
 0.18021609028E+02 0.14743951079E+02 0.12100565094E+02 0.99926596632E+01 0.83252116672E+01
 0.70145571484E+01 0.59916353827E+01 0.52020692085E+01 0.46044653642E+01 0.41681544331E+01
 0.38711493383E+01 0.36986447990E+01 0.34719289063E+01 0.35279060712E+01 0.36986447990E+01
 0.39927201902E+01 0.44249823272E+01 0.50175363371E+01 0.58013172114E+01 0.68182517174E+01
 0.81236808889E+01 0.97882336597E+01 0.11897877490E+02 0.14550681512E+02 0.17848986248E+02
 0.21885953311E+02 0.26725662086E+02 0.32376332700E+02 0.38757629687E+02 0.45665798566E+02
 0.52744280888E+02 0.59209562589E+02 0.63260841817E+02 0.62931817722E+02 0.56818105258E+02
 0.44645352351E+02 0.27624080397E+02 0.84248932145E+01 -.93084973099E+01 -.21838487399E+02
 -.26361911060E+02 -.21838487399E+02 -.93084973099E+01 0.84248932145E+01 0.27624080397E+02
 0.44645352351E+02 0.56818105258E+02 0.62931817722E+02 0.63260841817E+02 0.59209562589E+02
 0.52744280888E+02 0.45665798566E+02 0.38757629687E+02 0.32376332700E+02 0.26725662086E+02
 0.21885953311E+02 0.17848986248E+02 0.14550681512E+02 0.11897877490E+02 0.97882336597E+01
 0.81236808889E+01 0.68182517174E+01 0.58013172114E+01 0.50175363371E+01 0.44249823272E+01
 0.39927201902E+01 0.36986447990E+01 0.35279060712E+01 0.34161482697E+01 0.34719289063E+01
 0.36420783922E+01 0.39351744878E+01 0.43660778013E+01 0.49569242903E+01 0.57387250627E+01
 0.67535704241E+01 0.80571093499E+01 0.97204832840E+01 0.11830420816E+02 0.14486001025E+02
 0.17790736902E+02 0.21838894327E+02 0.26695162657E+02 0.32367253150E+02 0.38772450545E+02
 0.45702003364E+02 0.52790797392E+02 0.59201439712E+02 0.63066682487E+02 0.62383155662E+02
 0.55733732507E+02 0.42865845455E+02 0.25050740379E+02 0.50540824758E+01 -.13366059363E+02
 -.26361911060E+02 -.31050367439E+02 -.26361911060E+02 -.13366059363E+02 0.50540824758E+01
 0.25050740379E+02 0.42865845455E+02 0.55733732507E+02 0.62383155662E+02 0.63066682487E+02
 0.59201439712E+02 0.52790797392E+02 0.45702003364E+02 0.38772450545E+02 0.32367253150E+02
 0.26695162657E+02 0.21838894327E+02 0.17790736902E+02 0.14486001025E+02 0.11830420816E+02
 0.97204832840E+01 0.80571093499E+01 0.67535704241E+01 0.57387250627E+01 0.49569242903E+01