   8   8   0   0
  0.2002393E+02  0.5431000E-09  0.5431000E-09  0.5431000E-09  0.1000000E-14
  1.000000000000000E-004
  CAR 
 diamond Si                              
     11.52010764     -7.18895615  301      5.96168522      1.00000000
     -7.189  0.0000E+00  0.0000E+00
     -7.127  0.0000E+00  0.0000E+00
     -7.064  0.0000E+00  0.0000E+00
     -7.002  0.0000E+00  0.0000E+00
     -6.940  0.0000E+00  0.0000E+00
     -6.877  0.0000E+00  0.0000E+00
     -6.815  0.0000E+00  0.0000E+00
     -6.752  0.2215E-16  0.1382E-17
     -6.690  0.1958E-13  0.1223E-14
     -6.628  0.7799E-11  0.4876E-12
     -6.565  0.1450E-08  0.9093E-10
     -6.503  0.1264E-06  0.7972E-08
     -6.441  0.5185E-05  0.3313E-06
     -6.378  0.1007E-03  0.6610E-05
     -6.316  0.9321E-03  0.6474E-04
     -6.254  0.4182E-02  0.3256E-03
     -6.191  0.9857E-02  0.9403E-03
     -6.129  0.1753E-01  0.2034E-02
     -6.066  0.3642E-01  0.4305E-02
     -6.004  0.6171E-01  0.8153E-02
     -5.942  0.7509E-01  0.1284E-01
     -5.879  0.1005E+00  0.1910E-01
     -5.817  0.1260E+00  0.2696E-01
     -5.755  0.1096E+00  0.3380E-01
     -5.692  0.9354E-01  0.3963E-01
     -5.630  0.8555E-01  0.4497E-01
     -5.568  0.6804E-01  0.4921E-01
     -5.505  0.7089E-01  0.5363E-01
     -5.443  0.1004E+00  0.5989E-01
     -5.380  0.1757E+00  0.7085E-01
     -5.318  0.2563E+00  0.8683E-01
     -5.256  0.2636E+00  0.1033E+00
     -5.193  0.2648E+00  0.1198E+00
     -5.131  0.2337E+00  0.1344E+00
     -5.069  0.1205E+00  0.1419E+00
     -5.006  0.3718E-01  0.1442E+00
     -4.944  0.3967E-01  0.1467E+00
     -4.882  0.1005E+00  0.1529E+00
     -4.819  0.1701E+00  0.1635E+00
     -4.757  0.2434E+00  0.1787E+00
     -4.694  0.2980E+00  0.1973E+00
     -4.632  0.2564E+00  0.2133E+00
     -4.570  0.2190E+00  0.2270E+00
     -4.507  0.2713E+00  0.2439E+00
     -4.445  0.3193E+00  0.2638E+00
     -4.383  0.3474E+00  0.2855E+00
     -4.320  0.3087E+00  0.3047E+00
     -4.258  0.1705E+00  0.3153E+00
     -4.196  0.9374E-01  0.3212E+00
     -4.133  0.1969E+00  0.3335E+00
     -4.071  0.4371E+00  0.3607E+00
     -4.008  0.6133E+00  0.3990E+00
     -3.946  0.5427E+00  0.4328E+00
     -3.884  0.3718E+00  0.4560E+00
     -3.821  0.2815E+00  0.4736E+00
     -3.759  0.1753E+00  0.4845E+00
     -3.697  0.6469E-01  0.4885E+00
     -3.634  0.4987E-01  0.4916E+00
     -3.572  0.1661E+00  0.5020E+00
     -3.510  0.3698E+00  0.5251E+00
     -3.447  0.5193E+00  0.5574E+00
     -3.385  0.5560E+00  0.5921E+00
     -3.322  0.5001E+00  0.6233E+00
     -3.260  0.4313E+00  0.6502E+00
     -3.198  0.5055E+00  0.6817E+00
     -3.135  0.6236E+00  0.7206E+00
     -3.073  0.5254E+00  0.7534E+00
     -3.011  0.2754E+00  0.7706E+00
     -2.948  0.8572E-01  0.7759E+00
     -2.886  0.1625E-01  0.7769E+00
     -2.824  0.1878E-01  0.7781E+00
     -2.761  0.8518E-01  0.7834E+00
     -2.699  0.1987E+00  0.7958E+00
     -2.636  0.2236E+00  0.8097E+00
     -2.574  0.1216E+00  0.8173E+00
     -2.512  0.3411E-01  0.8195E+00
     -2.449  0.2203E-01  0.8208E+00
     -2.387  0.6556E-01  0.8249E+00
     -2.325  0.1140E+00  0.8320E+00
     -2.262  0.9932E-01  0.8382E+00
     -2.200  0.6823E-01  0.8425E+00
     -2.138  0.1308E+00  0.8506E+00
     -2.075  0.2887E+00  0.8686E+00
     -2.013  0.4068E+00  0.8940E+00
     -1.950  0.3761E+00  0.9175E+00
     -1.888  0.2272E+00  0.9316E+00
     -1.826  0.1047E+00  0.9382E+00
     -1.763  0.9758E-01  0.9442E+00
     -1.701  0.1176E+00  0.9516E+00
     -1.639  0.7757E-01  0.9564E+00
     -1.576  0.2494E-01  0.9580E+00
     -1.514  0.5431E-02  0.9583E+00
     -1.452  0.1691E-01  0.9594E+00
     -1.389  0.8238E-01  0.9645E+00
     -1.327  0.1965E+00  0.9768E+00
     -1.264  0.2313E+00  0.9912E+00
     -1.202  0.1757E+00  0.1002E+01
     -1.140  0.2580E+00  0.1018E+01
     -1.077  0.5641E+00  0.1053E+01
     -1.015  0.8240E+00  0.1105E+01
     -0.953  0.7537E+00  0.1152E+01
     -0.890  0.5162E+00  0.1184E+01
     -0.828  0.3685E+00  0.1207E+01
     -0.766  0.3229E+00  0.1227E+01
     -0.703  0.3365E+00  0.1248E+01
     -0.641  0.3860E+00  0.1272E+01
     -0.578  0.4859E+00  0.1302E+01
     -0.516  0.5655E+00  0.1338E+01
     -0.454  0.6106E+00  0.1376E+01
     -0.391  0.5299E+00  0.1409E+01
     -0.329  0.2741E+00  0.1426E+01
     -0.267  0.7276E-01  0.1430E+01
     -0.204  0.9443E-02  0.1431E+01
     -0.142  0.5985E-03  0.1431E+01
     -0.080  0.3454E-03  0.1431E+01
     -0.017  0.5092E-02  0.1431E+01
      0.045  0.3769E-01  0.1434E+01
      0.108  0.1338E+00  0.1442E+01
      0.170  0.2298E+00  0.1456E+01
      0.232  0.2049E+00  0.1469E+01
      0.295  0.1763E+00  0.1480E+01
      0.357  0.3198E+00  0.1500E+01
      0.419  0.4573E+00  0.1529E+01
      0.482  0.3383E+00  0.1550E+01
      0.544  0.1245E+00  0.1558E+01
      0.606  0.2262E-01  0.1559E+01
      0.669  0.2461E-02  0.1559E+01
      0.731  0.6572E-02  0.1560E+01
      0.794  0.4447E-01  0.1562E+01
      0.856  0.1463E+00  0.1571E+01
      0.918  0.2317E+00  0.1586E+01
      0.981  0.1774E+00  0.1597E+01
      1.043  0.7009E-01  0.1601E+01
      1.105  0.4337E-01  0.1604E+01
      1.168  0.1037E+00  0.1610E+01
      1.230  0.1713E+00  0.1621E+01
      1.292  0.1824E+00  0.1633E+01
      1.355  0.2439E+00  0.1648E+01
      1.417  0.4251E+00  0.1674E+01
      1.480  0.5228E+00  0.1707E+01
      1.542  0.3826E+00  0.1731E+01
      1.604  0.2069E+00  0.1744E+01
      1.667  0.2097E+00  0.1757E+01
      1.729  0.3160E+00  0.1776E+01
      1.791  0.4071E+00  0.1802E+01
      1.854  0.5446E+00  0.1836E+01
      1.916  0.7212E+00  0.1881E+01
      1.978  0.7780E+00  0.1929E+01
      2.041  0.7071E+00  0.1973E+01
      2.103  0.4875E+00  0.2004E+01
      2.166  0.2585E+00  0.2020E+01
      2.228  0.2897E+00  0.2038E+01
      2.290  0.4612E+00  0.2067E+01
      2.353  0.4576E+00  0.2095E+01
      2.415  0.4029E+00  0.2120E+01
      2.477  0.4623E+00  0.2149E+01
      2.540  0.4113E+00  0.2175E+01
      2.602  0.2770E+00  0.2192E+01
      2.664  0.3631E+00  0.2215E+01
      2.727  0.6890E+00  0.2258E+01
      2.789  0.9917E+00  0.2320E+01
      2.852  0.1009E+01  0.2383E+01
      2.914  0.8025E+00  0.2433E+01
      2.976  0.6919E+00  0.2476E+01
      3.039  0.6996E+00  0.2519E+01
      3.101  0.6379E+00  0.2559E+01
      3.163  0.5897E+00  0.2596E+01
      3.226  0.6987E+00  0.2639E+01
      3.288  0.6906E+00  0.2683E+01
      3.350  0.4054E+00  0.2708E+01
      3.413  0.1828E+00  0.2719E+01
      3.475  0.1832E+00  0.2731E+01
      3.538  0.3749E+00  0.2754E+01
      3.600  0.7924E+00  0.2803E+01
      3.662  0.1120E+01  0.2873E+01
      3.725  0.9562E+00  0.2933E+01
      3.787  0.5528E+00  0.2967E+01
      3.849  0.4299E+00  0.2994E+01
      3.912  0.6549E+00  0.3035E+01
      3.974  0.8753E+00  0.3090E+01
      4.036  0.7431E+00  0.3136E+01
      4.099  0.3900E+00  0.3160E+01
      4.161  0.2592E+00  0.3177E+01
      4.224  0.3642E+00  0.3199E+01
      4.286  0.4493E+00  0.3227E+01
      4.348  0.4978E+00  0.3258E+01
      4.411  0.5031E+00  0.3290E+01
      4.473  0.4156E+00  0.3316E+01
      4.535  0.3551E+00  0.3338E+01
      4.598  0.3249E+00  0.3358E+01
      4.660  0.3627E+00  0.3381E+01
      4.722  0.5038E+00  0.3412E+01
      4.785  0.5271E+00  0.3445E+01
      4.847  0.3536E+00  0.3467E+01
      4.910  0.1551E+00  0.3477E+01
      4.972  0.7507E-01  0.3481E+01
      5.034  0.1452E+00  0.3490E+01
      5.097  0.2602E+00  0.3507E+01
      5.159  0.2333E+00  0.3521E+01
      5.221  0.1012E+00  0.3527E+01
      5.284  0.2197E-01  0.3529E+01
      5.346  0.1082E-01  0.3529E+01
      5.408  0.4250E-01  0.3532E+01
      5.471  0.9952E-01  0.3538E+01
      5.533  0.1149E+00  0.3546E+01
      5.596  0.7368E-01  0.3550E+01
      5.658  0.4252E-01  0.3553E+01
      5.720  0.2865E-01  0.3555E+01
      5.783  0.1301E-01  0.3555E+01
      5.845  0.3003E-02  0.3556E+01
      5.907  0.3343E-03  0.3556E+01
      5.970  0.1899E-04  0.3556E+01
      6.032  0.4761E-04  0.3556E+01
      6.094  0.8339E-03  0.3556E+01
      6.157  0.7041E-02  0.3556E+01
      6.219  0.2883E-01  0.3558E+01
      6.282  0.6015E-01  0.3562E+01
      6.344  0.7556E-01  0.3566E+01
      6.406  0.7888E-01  0.3571E+01
      6.469  0.7899E-01  0.3576E+01
      6.531  0.7702E-01  0.3581E+01
      6.593  0.7364E-01  0.3586E+01
      6.656  0.7989E-01  0.3591E+01
      6.718  0.1134E+00  0.3598E+01
      6.780  0.1267E+00  0.3606E+01
      6.843  0.1380E+00  0.3614E+01
      6.905  0.2182E+00  0.3628E+01
      6.968  0.2656E+00  0.3644E+01
      7.030  0.2148E+00  0.3658E+01
      7.092  0.2195E+00  0.3671E+01
      7.155  0.3688E+00  0.3694E+01
      7.217  0.5055E+00  0.3726E+01
      7.279  0.4519E+00  0.3754E+01
      7.342  0.3084E+00  0.3773E+01
      7.404  0.3417E+00  0.3795E+01
      7.466  0.4845E+00  0.3825E+01
      7.529  0.4347E+00  0.3852E+01
      7.591  0.2855E+00  0.3870E+01
      7.654  0.2949E+00  0.3888E+01
      7.716  0.5547E+00  0.3923E+01
      7.778  0.8636E+00  0.3977E+01
      7.841  0.8670E+00  0.4031E+01
      7.903  0.6913E+00  0.4074E+01
      7.965  0.8418E+00  0.4126E+01
      8.028  0.1193E+01  0.4201E+01
      8.090  0.1009E+01  0.4264E+01
      8.152  0.4555E+00  0.4292E+01
      8.215  0.1408E+00  0.4301E+01
      8.277  0.1065E+00  0.4307E+01
      8.340  0.2613E+00  0.4324E+01
      8.402  0.4709E+00  0.4353E+01
      8.464  0.4902E+00  0.4384E+01
      8.527  0.4099E+00  0.4409E+01
      8.589  0.3780E+00  0.4433E+01
      8.651  0.3348E+00  0.4454E+01
      8.714  0.3907E+00  0.4478E+01
      8.776  0.5656E+00  0.4513E+01
      8.838  0.6792E+00  0.4556E+01
      8.901  0.8292E+00  0.4607E+01
      8.963  0.1250E+01  0.4685E+01
      9.026  0.1640E+01  0.4788E+01
      9.088  0.1490E+01  0.4881E+01
      9.150  0.9104E+00  0.4937E+01
      9.213  0.5161E+00  0.4970E+01
      9.275  0.6417E+00  0.5010E+01
      9.337  0.8941E+00  0.5065E+01
      9.400  0.8136E+00  0.5116E+01
      9.462  0.5486E+00  0.5150E+01
      9.524  0.3384E+00  0.5171E+01
      9.587  0.2222E+00  0.5185E+01
      9.649  0.2144E+00  0.5199E+01
      9.712  0.2664E+00  0.5215E+01
      9.774  0.2797E+00  0.5233E+01
      9.836  0.2368E+00  0.5247E+01
      9.899  0.3356E+00  0.5268E+01
      9.961  0.6548E+00  0.5309E+01
     10.023  0.8985E+00  0.5365E+01
     10.086  0.7559E+00  0.5412E+01
     10.148  0.4298E+00  0.5439E+01
     10.210  0.3493E+00  0.5461E+01
     10.273  0.4551E+00  0.5489E+01
     10.335  0.4501E+00  0.5517E+01
     10.398  0.2961E+00  0.5536E+01
     10.460  0.1453E+00  0.5545E+01
     10.522  0.8261E-01  0.5550E+01
     10.585  0.5629E-01  0.5554E+01
     10.647  0.2494E-01  0.5555E+01
     10.709  0.5589E-02  0.5556E+01
     10.772  0.6040E-03  0.5556E+01
     10.834  0.3111E-04  0.5556E+01
     10.896  0.7583E-06  0.5556E+01
     10.959  0.8701E-08  0.5556E+01
     11.021  0.4679E-10  0.5556E+01
     11.084  0.1175E-12  0.5556E+01
     11.146  0.1329E-15  0.5556E+01
     11.208  0.0000E+00  0.5556E+01
     11.271  0.0000E+00  0.5556E+01
     11.333  0.0000E+00  0.5556E+01
     11.395  0.0000E+00  0.5556E+01
     11.458  0.0000E+00  0.5556E+01
     11.520  0.0000E+00  0.5556E+01
