       N       E                     dE             d eps       ncg     rms          rms(c)
DAV:   1     0.308861798232E+02    0.30886E+02   -0.77543E+03   500   0.557E+02
DAV:   2    -0.413075848997E+02   -0.72194E+02   -0.68985E+02   635   0.111E+02
DAV:   3    -0.439626821734E+02   -0.26551E+01   -0.26386E+01   625   0.208E+01    0.112E+01
DAV:   4    -0.434977806126E+02    0.46490E+00   -0.49501E-01   675   0.333E+00    0.665E+00
DAV:   5    -0.432697239090E+02    0.22806E+00   -0.50215E-01   585   0.282E+00    0.373E-01
DAV:   6    -0.432742195216E+02   -0.44956E-02   -0.20048E-02   615   0.632E-01    0.197E-01
DAV:   7    -0.432757247806E+02   -0.15053E-02   -0.25898E-03   580   0.217E-01    0.121E-01
DAV:   8    -0.432758710013E+02   -0.14622E-03   -0.18185E-04   540   0.680E-02    0.530E-02
DAV:   9    -0.432759150006E+02   -0.43999E-04   -0.57161E-05   400   0.389E-02
   1 F= -.43275915E+02 E0= -.43275915E+02  d E =-.432759E+02
       N       E                     dE             d eps       ncg     rms          rms(c)
DAV:   1    -0.432890537366E+02   -0.13183E-01   -0.26529E+00   570   0.641E+00
DAV:   2    -0.432950659656E+02   -0.60122E-02   -0.60122E-02   610   0.103E+00
DAV:   3    -0.432951071579E+02   -0.41192E-04   -0.41192E-04   575   0.995E-02    0.184E+00
DAV:   4    -0.432369473024E+02    0.58160E-01   -0.27883E-02   520   0.596E-01    0.913E-01
DAV:   5    -0.432083296538E+02    0.28618E-01   -0.42330E-02   575   0.741E-01    0.306E-01
DAV:   6    -0.432081066668E+02    0.22299E-03   -0.19975E-03   550   0.200E-01    0.133E-01
DAV:   7    -0.432080458935E+02    0.60773E-04   -0.22339E-04   520   0.539E-02
   2 F= -.43208046E+02 E0= -.43208046E+02  d E =0.678691E-01
       N       E                     dE             d eps       ncg     rms          rms(c)
DAV:   1    -0.433312547417E+02   -0.12315E+00   -0.13334E+00   565   0.465E+00
DAV:   2    -0.433348903901E+02   -0.36356E-02   -0.36356E-02   600   0.760E-01
DAV:   3    -0.433349121008E+02   -0.21711E-04   -0.21711E-04   535   0.700E-02    0.131E+00
DAV:   4    -0.433060554281E+02    0.28857E-01   -0.13769E-02   515   0.426E-01    0.638E-01
DAV:   5    -0.432920970189E+02    0.13958E-01   -0.20419E-02   570   0.522E-01    0.232E-01
DAV:   6    -0.432920823946E+02    0.14624E-04   -0.98945E-04   540   0.144E-01
   3 F= -.43292082E+02 E0= -.43292082E+02  d E =-.161674E-01
       N       E                     dE             d eps       ncg     rms          rms(c)
DAV:   1    -0.432920138694E+02    0.83149E-04   -0.32908E-04   520   0.778E-02
DAV:   2    -0.432920144713E+02   -0.60191E-06   -0.60183E-06   265   0.100E-02
DAV:   3    -0.432920145173E+02   -0.45967E-07   -0.45918E-07   265   0.340E-03    0.344E-02
DAV:   4    -0.432920066881E+02    0.78292E-05   -0.42037E-06   265   0.810E-03
   4 F= -.43292007E+02 E0= -.43292007E+02  d E =-.160917E-01
