<?xml version="1.0" encoding="ISO-8859-1"?>
<modeling>
 <generator>
  <i name="program" type="string">vasp </i>
  <i name="version" type="string">5.4.1  </i>
  <i name="subversion" type="string">05Feb16 (build Feb 24 2020 14:33:01) complex                          parallel </i>
  <i name="platform" type="string">IFC91_ompi </i>
  <i name="date" type="string">2020 02 27 </i>
  <i name="time" type="string">21:43:42 </i>
 </generator>
 <incar>
  <i type="string" name="SYSTEM"> diamond Si</i>
  <i type="int" name="ISTART">     0</i>
  <i type="string" name="PREC">accurate</i>
  <i type="int" name="NSIM">     4</i>
  <i type="int" name="ICHARG">     2</i>
  <i type="int" name="NELM">    60</i>
  <i type="int" name="NELMDL">     3</i>
  <i type="int" name="NELMIN">     0</i>
  <i type="int" name="IBRION">     2</i>
  <i name="EDIFF">      0.00010000</i>
  <i name="EDIFFG">     -0.01000000</i>
  <i type="int" name="NSW">     9</i>
  <i type="int" name="ISIF">     3</i>
  <i name="ENCUT">    240.00000000</i>
  <i name="POTIM">      1.00000000</i>
  <i type="logical" name="LPLANE"> F  </i>
  <i type="int" name="ISMEAR">     0</i>
  <i name="SIGMA">      0.10000000</i>
  <v type="int" name="KPOINT_BSE">    -1     0     0     0</v>
  <i type="int" name="NELM">    60</i>
 </incar>
 <kpoints>
  <generation param="Monkhorst-Pack">
   <v type="int" name="divisions">       5        5        5 </v>
   <v name="usershift">      0.00000000       0.00000000       0.00000000 </v>
   <v name="genvec1">      0.20000000       0.00000000       0.00000000 </v>
   <v name="genvec2">      0.00000000       0.20000000       0.00000000 </v>
   <v name="genvec3">      0.00000000       0.00000000       0.20000000 </v>
   <v name="shift">      0.00000000       0.00000000       0.00000000 </v>
  </generation>
  <varray name="kpointlist" >
   <v>       0.00000000       0.00000000       0.00000000 </v>
   <v>       0.20000000       0.00000000       0.00000000 </v>
   <v>       0.40000000       0.00000000       0.00000000 </v>
   <v>       0.20000000       0.20000000       0.00000000 </v>
   <v>       0.40000000       0.20000000       0.00000000 </v>
   <v>       0.40000000       0.40000000       0.00000000 </v>
   <v>       0.20000000       0.20000000       0.20000000 </v>
   <v>       0.40000000       0.20000000       0.20000000 </v>
   <v>       0.40000000       0.40000000       0.20000000 </v>
   <v>       0.40000000       0.40000000       0.40000000 </v>
  </varray>
  <varray name="weights" >
   <v>       0.00800000 </v>
   <v>       0.04800000 </v>
   <v>       0.04800000 </v>
   <v>       0.09600000 </v>
   <v>       0.19200000 </v>
   <v>       0.09600000 </v>
   <v>       0.06400000 </v>
   <v>       0.19200000 </v>
   <v>       0.19200000 </v>
   <v>       0.06400000 </v>
  </varray>
 </kpoints>
 <parameters>
  <separator name="general" >
   <i type="string" name="SYSTEM">diamond Si</i>
   <i type="logical" name="LCOMPAT"> F  </i>
  </separator>
  <separator name="electronic" >
   <i type="string" name="PREC">accura</i>
   <i name="ENMAX">    240.00000000</i>
   <i name="ENAUG">    322.06900000</i>
   <i name="EDIFF">      0.00010000</i>
   <i type="int" name="IALGO">    38</i>
   <i type="int" name="IWAVPR">    11</i>
   <i type="int" name="NBANDS">    25</i>
   <i name="NELECT">     32.00000000</i>
   <i type="int" name="TURBO">     0</i>
   <i type="int" name="IRESTART">     0</i>
   <i type="int" name="NREBOOT">     0</i>
   <i type="int" name="NMIN">     0</i>
   <i name="EREF">      0.00000000</i>
   <separator name="electronic smearing" >
    <i type="int" name="ISMEAR">     0</i>
    <i name="SIGMA">      0.10000000</i>
    <i name="KSPACING">      0.50000000</i>
    <i type="logical" name="KGAMMA"> T  </i>
   </separator>
   <separator name="electronic projectors" >
    <i type="logical" name="LREAL"> F  </i>
    <v name="ROPT">      0.00000000</v>
    <i type="int" name="LMAXPAW">  -100</i>
    <i type="int" name="LMAXMIX">     2</i>
    <i type="logical" name="NLSPLINE"> F  </i>
   </separator>
   <separator name="electronic startup" >
    <i type="int" name="ISTART">     0</i>
    <i type="int" name="ICHARG">     2</i>
    <i type="int" name="INIWAV">     1</i>
   </separator>
   <separator name="electronic spin" >
    <i type="int" name="ISPIN">     1</i>
    <i type="logical" name="LNONCOLLINEAR"> F  </i>
    <v name="MAGMOM">      1.00000000      1.00000000      1.00000000      1.00000000      1.00000000      1.00000000      1.00000000      1.00000000</v>
    <i name="NUPDOWN">     -1.00000000</i>
    <i type="logical" name="LSORBIT"> F  </i>
    <v name="SAXIS">      0.00000000      0.00000000      1.00000000</v>
    <i type="logical" name="LSPIRAL"> F  </i>
    <v name="QSPIRAL">      0.00000000      0.00000000      0.00000000</v>
    <i type="logical" name="LZEROZ"> F  </i>
   </separator>
   <separator name="electronic exchange-correlation" >
    <i type="logical" name="LASPH"> F  </i>
    <i type="logical" name="LMETAGGA"> F  </i>
   </separator>
   <separator name="electronic convergence" >
    <i type="int" name="NELM">    60</i>
    <i type="int" name="NELMDL">     3</i>
    <i type="int" name="NELMIN">     0</i>
    <i name="ENINI">    240.00000000</i>
    <separator name="electronic convergence detail" >
     <i type="logical" name="LDIAG"> T  </i>
     <i type="logical" name="LSUBROT"> F  </i>
     <i name="WEIMIN">      0.00100000</i>
     <i name="EBREAK">      0.00000100</i>
     <i name="DEPER">      0.30000000</i>
     <i type="int" name="NRMM">     4</i>
     <i name="TIME">      0.40000000</i>
    </separator>
   </separator>
   <separator name="electronic mixer" >
    <i name="AMIX">      0.40000000</i>
    <i name="BMIX">      1.00000000</i>
    <i name="AMIN">      0.10000000</i>
    <i name="AMIX_MAG">      1.60000000</i>
    <i name="BMIX_MAG">      1.00000000</i>
    <separator name="electronic mixer details" >
     <i type="int" name="IMIX">     4</i>
     <i type="logical" name="MIXFIRST"> F  </i>
     <i type="int" name="MAXMIX">   -45</i>
     <i name="WC">    100.00000000</i>
     <i type="int" name="INIMIX">     1</i>
     <i type="int" name="MIXPRE">     1</i>
     <i type="int" name="MREMOVE">     5</i>
    </separator>
   </separator>
   <separator name="electronic dipolcorrection" >
    <i type="logical" name="LDIPOL"> F  </i>
    <i type="logical" name="LMONO"> F  </i>
    <i type="int" name="IDIPOL">     0</i>
    <i name="EPSILON">      1.00000000</i>
    <v name="DIPOL">   -100.00000000   -100.00000000   -100.00000000</v>
    <i name="EFIELD">      0.00000000</i>
   </separator>
  </separator>
  <separator name="grids" >
   <i type="int" name="NGX">    28</i>
   <i type="int" name="NGY">    28</i>
   <i type="int" name="NGZ">    28</i>
   <i type="int" name="NGXF">    56</i>
   <i type="int" name="NGYF">    56</i>
   <i type="int" name="NGZF">    56</i>
   <i type="logical" name="ADDGRID"> F  </i>
  </separator>
  <separator name="ionic" >
   <i type="int" name="NSW">     9</i>
   <i type="int" name="IBRION">     2</i>
   <i type="int" name="ISIF">     3</i>
   <i name="PSTRESS">      0.00000000</i>
   <i name="EDIFFG">     -0.01000000</i>
   <i type="int" name="NFREE">     1</i>
   <i name="POTIM">      1.00000000</i>
   <i name="SMASS">     -3.00000000</i>
   <i name="SCALEE">      1.00000000</i>
  </separator>
  <separator name="ionic md" >
   <i name="TEBEG">      0.00010000</i>
   <i name="TEEND">      0.00010000</i>
   <i type="int" name="NBLOCK">     1</i>
   <i type="int" name="KBLOCK">     9</i>
   <i type="int" name="NPACO">   256</i>
   <i name="APACO">     16.00000000</i>
  </separator>
  <separator name="symmetry" >
   <i type="int" name="ISYM">     2</i>
   <i name="SYMPREC">      0.00001000</i>
  </separator>
  <separator name="dos" >
   <i type="logical" name="LORBIT"> F  </i>
   <v name="RWIGS">     -1.00000000</v>
   <i type="int" name="NEDOS">   301</i>
   <i name="EMIN">     10.00000000</i>
   <i name="EMAX">    -10.00000000</i>
   <i name="EFERMI">      0.00000000</i>
  </separator>
  <separator name="writing" >
   <i type="int" name="NWRITE">     2</i>
   <i type="logical" name="LWAVE"> T  </i>
   <i type="logical" name="LCHARG"> T  </i>
   <i type="logical" name="LPARD"> F  </i>
   <i type="logical" name="LVTOT"> F  </i>
   <i type="logical" name="LVHAR"> F  </i>
   <i type="logical" name="LELF"> F  </i>
   <i type="logical" name="LOPTICS"> F  </i>
   <v name="STM">      0.00000000      0.00000000      0.00000000      0.00000000      0.00000000      0.00000000      0.00000000</v>
  </separator>
  <separator name="performance" >
   <i type="int" name="NPAR">     5</i>
   <i type="int" name="NSIM">     4</i>
   <i type="int" name="NBLK">    -1</i>
   <i type="logical" name="LPLANE"> F  </i>
   <i type="logical" name="LSCALAPACK"> T  </i>
   <i type="logical" name="LSCAAWARE"> F  </i>
   <i type="logical" name="LSCALU"> F  </i>
   <i type="logical" name="LASYNC"> F  </i>
   <i type="logical" name="LORBITALREAL"> F  </i>
  </separator>
  <separator name="miscellaneous" >
   <i type="int" name="IDIOT">     3</i>
   <i type="logical" name="LMUSIC"> F  </i>
   <v name="POMASS">     28.08500000</v>
   <v name="DARWINR">      0.00000000</v>
   <v name="DARWINV">      1.00000000</v>
   <i type="logical" name="LCORR"> T  </i>
  </separator>
  <i type="logical" name="GGA_COMPAT"> T  </i>
  <i type="logical" name="LBERRY"> F  </i>
  <i type="int" name="ICORELEVEL">     0</i>
  <i type="logical" name="LDAU"> F  </i>
  <i type="int" name="I_CONSTRAINED_M">     0</i>
  <separator name="electronic exchange-correlation" >
   <i type="string" name="GGA">--</i>
   <i type="int" name="VOSKOWN">     0</i>
   <i type="logical" name="LHFCALC"> F  </i>
   <i type="string" name="PRECFOCK"></i>
   <i type="logical" name="LSYMGRAD"> F  </i>
   <i type="logical" name="LHFONE"> F  </i>
   <i type="logical" name="LRHFCALC"> F  </i>
   <i type="logical" name="LTHOMAS"> F  </i>
   <i type="logical" name="LMODELHF"> F  </i>
   <i name="ENCUT4O">     -1.00000000</i>
   <i type="int" name="EXXOEP">     0</i>
   <i type="int" name="FOURORBIT">     0</i>
   <i name="AEXX">      0.00000000</i>
   <i name="HFALPHA">      0.00000000</i>
   <i name="MCALPHA">      0.00000000</i>
   <i name="ALDAX">      1.00000000</i>
   <i name="AGGAX">      1.00000000</i>
   <i name="ALDAC">      1.00000000</i>
   <i name="AGGAC">      1.00000000</i>
   <i type="int" name="NKREDX">     1</i>
   <i type="int" name="NKREDY">     1</i>
   <i type="int" name="NKREDZ">     1</i>
   <i type="logical" name="SHIFTRED"> F  </i>
   <i type="logical" name="ODDONLY"> F  </i>
   <i type="logical" name="EVENONLY"> F  </i>
   <i type="int" name="LMAXFOCK">     0</i>
   <i type="int" name="NMAXFOCKAE">     0</i>
   <i type="logical" name="LFOCKAEDFT"> F  </i>
   <i name="HFSCREEN">      0.00000000</i>
   <i name="HFSCREENC">      0.00000000</i>
   <i type="int" name="NBANDSGWLOW">     0</i>
  </separator>
  <separator name="vdW DFT" >
   <i type="logical" name="LUSE_VDW"> F  </i>
   <i name="Zab_VDW">     -0.84910000</i>
   <i name="PARAM1">      0.12340000</i>
   <i name="PARAM2">      1.00000000</i>
   <i name="PARAM3">      0.00000000</i>
  </separator>
  <separator name="model GW" >
   <i type="int" name="MODEL_GW">     0</i>
   <i name="MODEL_EPS0">     12.01436085</i>
   <i name="MODEL_ALPHA">      1.00000000</i>
  </separator>
  <separator name="linear response parameters" >
   <i type="logical" name="LEPSILON"> F  </i>
   <i type="logical" name="LRPA"> F  </i>
   <i type="logical" name="LNABLA"> F  </i>
   <i type="logical" name="LVEL"> F  </i>
   <i type="int" name="KINTER">     0</i>
   <i name="CSHIFT">      0.10000000</i>
   <i name="OMEGAMAX">     -1.00000000</i>
   <i name="DEG_THRESHOLD">      0.00200000</i>
  </separator>
  <separator name="orbital magnetization" >
   <i type="logical" name="NUCIND"> F  </i>
   <v name="MAGPOS">      0.00000000      0.00000000      0.00000000</v>
   <i type="logical" name="LNICSALL"> T  </i>
   <i type="logical" name="ORBITALMAG"> F  </i>
   <i type="logical" name="LMAGBLOCH"> F  </i>
   <i type="logical" name="LCHIMAG"> F  </i>
   <i type="logical" name="LGAUGE"> T  </i>
   <i type="int" name="MAGATOM">     0</i>
   <v name="MAGDIPOL">      0.00000000      0.00000000      0.00000000</v>
   <v name="AVECCONST">      0.00000000      0.00000000      0.00000000</v>
  </separator>
  <separator name="response functions" >
   <i type="logical" name="LADDER"> F  </i>
   <i type="logical" name="LFXC"> F  </i>
   <i type="logical" name="LHARTREE"> T  </i>
   <i type="int" name="IBSE">     0</i>
   <v type="int" name="KPOINT">    -1     0     0     0</v>
   <i type="logical" name="LTCTE"> F  </i>
   <i type="logical" name="LTETE"> F  </i>
   <i type="logical" name="LTRIPLET"> F  </i>
   <i type="logical" name="LFXCEPS"> F  </i>
   <i type="logical" name="LFXHEG"> F  </i>
   <i type="int" name="NATURALO">     0</i>
   <i type="logical" name="L2ORDER"> F  </i>
   <i type="logical" name="LUSEW"> F  </i>
   <i name="ENCUTGW">     -2.00000000</i>
   <i name="ENCUTGWSOFT">     -2.00000000</i>
   <i name="ENCUTLF">     -1.00000000</i>
   <i type="int" name="LMAXMP2">    -1</i>
   <i name="SCISSOR">      0.00000000</i>
   <i type="int" name="NOMEGA">     0</i>
   <i type="int" name="NOMEGAR">     0</i>
   <i type="int" name="NBANDSGW">    -1</i>
   <i type="int" name="NBANDSO">    -1</i>
   <i type="int" name="NBANDSV">    -1</i>
   <i type="int" name="NELM">    60</i>
   <i type="int" name="NELMHF">     1</i>
   <i type="int" name="DIM">     3</i>
   <i type="int" name="ANTIRES">     0</i>
   <i name="OMEGAMAX">    -30.00000000</i>
   <i name="OMEGAMIN">    -30.00000000</i>
   <i name="OMEGATL">   -200.00000000</i>
   <i type="int" name="OMEGAGRID">     0</i>
   <i name="CSHIFT">     -0.10000000</i>
   <i type="logical" name="SELFENERGY"> F  </i>
   <i type="logical" name="LSPECTRAL"> F  </i>
   <i type="logical" name="LSPECTRALGW"> F  </i>
   <i type="logical" name="LSINGLES"> F  </i>
   <i type="logical" name="LFERMIGW"> F  </i>
   <i type="logical" name="ODDONLYGW"> F  </i>
   <i type="logical" name="EVENONLYGW"> F  </i>
   <i type="int" name="NKREDLFX">     1</i>
   <i type="int" name="NKREDLFY">     1</i>
   <i type="int" name="NKREDLFZ">     1</i>
   <i type="int" name="MAXMEM">  1800</i>
   <i type="int" name="TELESCOPE">     0</i>
   <i type="int" name="TAUPAR">     1</i>
   <i type="int" name="OMEGAPAR">    -1</i>
   <i name="LAMBDA">      1.00000000</i>
  </separator>
  <separator name="External order field" >
   <i name="OFIELD_KAPPA">      0.00000000</i>
   <v name="OFIELD_K">      0.00000000      0.00000000      0.00000000</v>
   <i name="OFIELD_Q6_NEAR">      0.00000000</i>
   <i name="OFIELD_Q6_FAR">      0.00000000</i>
   <i name="OFIELD_A">      0.00000000</i>
  </separator>
 </parameters>
 <atominfo>
  <atoms>       8 </atoms>
  <types>       1 </types>
  <array name="atoms" >
   <dimension dim="1">ion</dimension>
   <field type="string">element</field>
   <field type="int">atomtype</field>
   <set>
    <rc><c>Si</c><c>   1</c></rc>
    <rc><c>Si</c><c>   1</c></rc>
    <rc><c>Si</c><c>   1</c></rc>
    <rc><c>Si</c><c>   1</c></rc>
    <rc><c>Si</c><c>   1</c></rc>
    <rc><c>Si</c><c>   1</c></rc>
    <rc><c>Si</c><c>   1</c></rc>
    <rc><c>Si</c><c>   1</c></rc>
   </set>
  </array>
  <array name="atomtypes" >
   <dimension dim="1">type</dimension>
   <field type="int">atomspertype</field>
   <field type="string">element</field>
   <field>mass</field>
   <field>valence</field>
   <field type="string">pseudopotential</field>
   <set>
    <rc><c>   8</c><c>Si</c><c>     28.08500000</c><c>      4.00000000</c><c>  PAW_PBE Si 05Jan2001                  </c></rc>
   </set>
  </array>
 </atominfo>
 <structure name="initialpos" >
  <crystal>
   <varray name="basis" >
    <v>       5.43100000       0.00000000       0.00000000 </v>
    <v>       0.00000000       5.43100000       0.00000000 </v>
    <v>       0.00000000       0.00000000       5.43100000 </v>
   </varray>
   <i name="volume">    160.19147799 </i>
   <varray name="rec_basis" >
    <v>       0.18412815       0.00000000       0.00000000 </v>
    <v>       0.00000000       0.18412815       0.00000000 </v>
    <v>       0.00000000       0.00000000       0.18412815 </v>
   </varray>
  </crystal>
  <varray name="positions" >
   <v>       0.00000000       0.00000000       0.00000000 </v>
   <v>       0.00000000       0.50000000       0.50000000 </v>
   <v>       0.50000000       0.00000000       0.50000000 </v>
   <v>       0.50000000       0.50000000       0.00000000 </v>
   <v>       0.25000000       0.25000000       0.25000000 </v>
   <v>       0.75000000       0.75000000       0.25000000 </v>
   <v>       0.75000000       0.25000000       0.75000000 </v>
   <v>       0.25000000       0.75000000       0.75000000 </v>
  </varray>
 </structure>
 <calculation>
  <scstep>
   <time name="dav">    0.27    0.28</time>
   <time name="total">    0.28    0.29</time>
   <energy>
    <i name="alphaZ">     13.44915721 </i>
    <i name="ewald">   -914.08579262 </i>
    <i name="hartreedc">    -44.03749844 </i>
    <i name="XCdc">    -74.41614067 </i>
    <i name="pawpsdc">    704.99039692 </i>
    <i name="pawaedc">   -564.24414232 </i>
    <i name="eentropy">     -0.01551377 </i>
    <i name="bandstr">     84.75950089 </i>
    <i name="atom">    824.48621262 </i>
    <i name="e_fr_energy">     30.88617982 </i>
    <i name="e_wo_entrp">     30.90169359 </i>
    <i name="e_0_energy">     30.89393671 </i>
   </energy>
  </scstep>
  <scstep>
   <time name="dav">    0.09    0.09</time>
   <time name="total">    0.09    0.10</time>
   <energy>
    <i name="e_fr_energy">    -41.30758490 </i>
    <i name="e_wo_entrp">    -41.30758150 </i>
    <i name="e_0_energy">    -41.30758320 </i>
   </energy>
  </scstep>
  <scstep>
   <time name="dav">    0.08    0.08</time>
   <time name="total">    0.09    0.10</time>
   <energy>
    <i name="e_fr_energy">    -43.96268217 </i>
    <i name="e_wo_entrp">    -43.96268217 </i>
    <i name="e_0_energy">    -43.96268217 </i>
   </energy>
  </scstep>
  <scstep>
   <time name="dav">    0.09    0.09</time>
   <time name="total">    0.10    0.11</time>
   <energy>
    <i name="e_fr_energy">    -43.49778061 </i>
    <i name="e_wo_entrp">    -43.49778061 </i>
    <i name="e_0_energy">    -43.49778061 </i>
   </energy>
  </scstep>
  <scstep>
   <time name="dav">    0.08    0.08</time>
   <time name="total">    0.09    0.09</time>
   <energy>
    <i name="e_fr_energy">    -43.26972391 </i>
    <i name="e_wo_entrp">    -43.26972238 </i>
    <i name="e_0_energy">    -43.26972314 </i>
   </energy>
  </scstep>
  <scstep>
   <time name="dav">    0.08    0.08</time>
   <time name="total">    0.10    0.10</time>
   <energy>
    <i name="e_fr_energy">    -43.27421952 </i>
    <i name="e_wo_entrp">    -43.27421848 </i>
    <i name="e_0_energy">    -43.27421900 </i>
   </energy>
  </scstep>
  <scstep>
   <time name="dav">    0.08    0.08</time>
   <time name="total">    0.09    0.09</time>
   <energy>
    <i name="e_fr_energy">    -43.27572478 </i>
    <i name="e_wo_entrp">    -43.27572408 </i>
    <i name="e_0_energy">    -43.27572443 </i>
   </energy>
  </scstep>
  <scstep>
   <time name="dav">    0.08    0.08</time>
   <time name="total">    0.09    0.09</time>
   <energy>
    <i name="e_fr_energy">    -43.27587100 </i>
    <i name="e_wo_entrp">    -43.27587029 </i>
    <i name="e_0_energy">    -43.27587064 </i>
   </energy>
  </scstep>
  <scstep>
   <time name="dav">    0.06    0.06</time>
   <time name="total">    0.07    0.07</time>
   <energy>
    <i name="alphaZ">     13.44915721 </i>
    <i name="ewald">   -914.08579262 </i>
    <i name="hartreedc">    -59.67194408 </i>
    <i name="XCdc">    -71.81680169 </i>
    <i name="pawpsdc">   4211.33719869 </i>
    <i name="pawaedc">  -4071.51771365 </i>
    <i name="eentropy">     -0.00000070 </i>
    <i name="bandstr">     24.54376922 </i>
    <i name="atom">    824.48621262 </i>
    <i name="e_fr_energy">    -43.27591500 </i>
    <i name="e_wo_entrp">    -43.27591430 </i>
    <i name="e_0_energy">    -43.27591465 </i>
   </energy>
  </scstep>
  <structure>
   <crystal>
    <varray name="basis" >
     <v>       5.43100000       0.00000000       0.00000000 </v>
     <v>       0.00000000       5.43100000       0.00000000 </v>
     <v>       0.00000000       0.00000000       5.43100000 </v>
    </varray>
    <i name="volume">    160.19147799 </i>
    <varray name="rec_basis" >
     <v>       0.18412815       0.00000000       0.00000000 </v>
     <v>       0.00000000       0.18412815       0.00000000 </v>
     <v>       0.00000000       0.00000000       0.18412815 </v>
    </varray>
   </crystal>
   <varray name="positions" >
    <v>       0.00000000       0.00000000       0.00000000 </v>
    <v>       0.00000000       0.50000000       0.50000000 </v>
    <v>       0.50000000       0.00000000       0.50000000 </v>
    <v>       0.50000000       0.50000000       0.00000000 </v>
    <v>       0.25000000       0.25000000       0.25000000 </v>
    <v>       0.75000000       0.75000000       0.25000000 </v>
    <v>       0.75000000       0.25000000       0.75000000 </v>
    <v>       0.25000000       0.75000000       0.75000000 </v>
   </varray>
  </structure>
  <varray name="forces" >
   <v>       0.00000000      -0.00000000       0.00000000 </v>
   <v>       0.00000000      -0.00000000       0.00000000 </v>
   <v>       0.00000000       0.00000000       0.00000000 </v>
   <v>      -0.00000000       0.00000000       0.00000000 </v>
   <v>       0.00000000      -0.00000000      -0.00000000 </v>
   <v>      -0.00000000       0.00000000      -0.00000000 </v>
   <v>      -0.00000000       0.00000000      -0.00000000 </v>
   <v>      -0.00000000       0.00000000      -0.00000000 </v>
  </varray>
  <varray name="stress" >
   <v>      17.42482391       0.00000000      -0.00000000 </v>
   <v>      -0.00000000      17.42482391      -0.00000000 </v>
   <v>      -0.00000000       0.00000000      17.42482391 </v>
  </varray>
  <energy>
   <i name="e_fr_energy">    -43.27591500 </i>
   <i name="e_wo_entrp">    -43.27591465 </i>
   <i name="e_0_energy">     -0.00000070 </i>
  </energy>
  <time name="totalsc">    1.19    1.24</time>
 </calculation>
 <calculation>
  <scstep>
   <time name="dav">    0.08    0.08</time>
   <time name="total">    0.09    0.09</time>
   <energy>
    <i name="alphaZ">     12.63579197 </i>
    <i name="ewald">   -895.27424542 </i>
    <i name="hartreedc">    -58.44498301 </i>
    <i name="XCdc">    -73.03820766 </i>
    <i name="pawpsdc">   4216.10781571 </i>
    <i name="pawaedc">  -4076.28771173 </i>
    <i name="eentropy">     -0.00000000 </i>
    <i name="bandstr">      6.52627380 </i>
    <i name="atom">    824.48621262 </i>
    <i name="e_fr_energy">    -43.28905374 </i>
    <i name="e_wo_entrp">    -43.28905374 </i>
    <i name="e_0_energy">    -43.28905374 </i>
   </energy>
  </scstep>
  <scstep>
   <time name="dav">    0.09    0.09</time>
   <time name="total">    0.09    0.09</time>
   <energy>
    <i name="e_fr_energy">    -43.29506597 </i>
    <i name="e_wo_entrp">    -43.29506596 </i>
    <i name="e_0_energy">    -43.29506597 </i>
   </energy>
  </scstep>
  <scstep>
   <time name="dav">    0.08    0.08</time>
   <time name="total">    0.09    0.09</time>
   <energy>
    <i name="e_fr_energy">    -43.29510716 </i>
    <i name="e_wo_entrp">    -43.29510716 </i>
    <i name="e_0_energy">    -43.29510716 </i>
   </energy>
  </scstep>
  <scstep>
   <time name="dav">    0.07    0.07</time>
   <time name="total">    0.09    0.09</time>
   <energy>
    <i name="e_fr_energy">    -43.23694730 </i>
    <i name="e_wo_entrp">    -43.23694730 </i>
    <i name="e_0_energy">    -43.23694730 </i>
   </energy>
  </scstep>
  <scstep>
   <time name="dav">    0.08    0.08</time>
   <time name="total">    0.09    0.09</time>
   <energy>
    <i name="e_fr_energy">    -43.20832965 </i>
    <i name="e_wo_entrp">    -43.20832963 </i>
    <i name="e_0_energy">    -43.20832964 </i>
   </energy>
  </scstep>
  <scstep>
   <time name="dav">    0.08    0.08</time>
   <time name="total">    0.09    0.09</time>
   <energy>
    <i name="e_fr_energy">    -43.20810667 </i>
    <i name="e_wo_entrp">    -43.20810664 </i>
    <i name="e_0_energy">    -43.20810666 </i>
   </energy>
  </scstep>
  <scstep>
   <time name="dav">    0.07    0.07</time>
   <time name="total">    0.08    0.08</time>
   <energy>
    <i name="alphaZ">     12.63579197 </i>
    <i name="ewald">   -895.27424542 </i>
    <i name="hartreedc">    -62.66498755 </i>
    <i name="XCdc">    -72.94691506 </i>
    <i name="pawpsdc">   3785.23100799 </i>
    <i name="pawaedc">  -3645.20197996 </i>
    <i name="eentropy">     -0.00000003 </i>
    <i name="bandstr">     10.52706955 </i>
    <i name="atom">    824.48621262 </i>
    <i name="e_fr_energy">    -43.20804589 </i>
    <i name="e_wo_entrp">    -43.20804587 </i>
    <i name="e_0_energy">    -43.20804588 </i>
   </energy>
  </scstep>
  <structure>
   <crystal>
    <varray name="basis" >
     <v>       5.54511644       0.00000000      -0.00000000 </v>
     <v>      -0.00000000       5.54511644      -0.00000000 </v>
     <v>      -0.00000000       0.00000000       5.54511644 </v>
    </varray>
    <i name="volume">    170.50299472 </i>
    <varray name="rec_basis" >
     <v>       0.18033886       0.00000000       0.00000000 </v>
     <v>      -0.00000000       0.18033886      -0.00000000 </v>
     <v>       0.00000000       0.00000000       0.18033886 </v>
    </varray>
   </crystal>
   <varray name="positions" >
    <v>       0.00000000      -0.00000000       0.00000000 </v>
    <v>       0.00000000       0.50000000       0.50000000 </v>
    <v>       0.50000000       0.00000000       0.50000000 </v>
    <v>       0.50000000       0.50000000       0.00000000 </v>
    <v>       0.25000000       0.25000000       0.25000000 </v>
    <v>       0.75000000       0.75000000       0.25000000 </v>
    <v>       0.75000000       0.25000000       0.75000000 </v>
    <v>       0.25000000       0.75000000       0.75000000 </v>
   </varray>
  </structure>
  <varray name="forces" >
   <v>      -0.00000000       0.00000000      -0.00000000 </v>
   <v>      -0.00000000      -0.00000000      -0.00000000 </v>
   <v>      -0.00000000       0.00000000       0.00000000 </v>
   <v>      -0.00000000       0.00000000      -0.00000000 </v>
   <v>      -0.00000000       0.00000000       0.00000000 </v>
   <v>       0.00000000      -0.00000000       0.00000000 </v>
   <v>       0.00000000       0.00000000       0.00000000 </v>
   <v>      -0.00000000      -0.00000000      -0.00000000 </v>
  </varray>
  <varray name="stress" >
   <v>     -35.49865452      -0.00000000       0.00000000 </v>
   <v>      -0.00000000     -35.49865452      -0.00000000 </v>
   <v>      -0.00000000       0.00000000     -35.49865452 </v>
  </varray>
  <energy>
   <i name="e_fr_energy">    -43.20804589 </i>
   <i name="e_wo_entrp">    -43.20804588 </i>
   <i name="e_0_energy">     -0.00000003 </i>
  </energy>
  <time name="totalsc">    0.65    0.68</time>
 </calculation>
 <calculation>
  <scstep>
   <time name="dav">    0.08    0.08</time>
   <time name="total">    0.08    0.09</time>
   <energy>
    <i name="alphaZ">     13.19624174 </i>
    <i name="ewald">   -908.31960852 </i>
    <i name="hartreedc">    -63.59303933 </i>
    <i name="XCdc">    -72.10887006 </i>
    <i name="pawpsdc">   3810.08170535 </i>
    <i name="pawaedc">  -3670.05684331 </i>
    <i name="eentropy">     -0.00000186 </i>
    <i name="bandstr">     22.98294863 </i>
    <i name="atom">    824.48621262 </i>
    <i name="e_fr_energy">    -43.33125474 </i>
    <i name="e_wo_entrp">    -43.33125288 </i>
    <i name="e_0_energy">    -43.33125381 </i>
   </energy>
  </scstep>
  <scstep>
   <time name="dav">    0.08    0.08</time>
   <time name="total">    0.08    0.08</time>
   <energy>
    <i name="e_fr_energy">    -43.33489039 </i>
    <i name="e_wo_entrp">    -43.33488853 </i>
    <i name="e_0_energy">    -43.33488946 </i>
   </energy>
  </scstep>
  <scstep>
   <time name="dav">    0.07    0.08</time>
   <time name="total">    0.08    0.09</time>
   <energy>
    <i name="e_fr_energy">    -43.33491210 </i>
    <i name="e_wo_entrp">    -43.33491024 </i>
    <i name="e_0_energy">    -43.33491117 </i>
   </energy>
  </scstep>
  <scstep>
   <time name="dav">    0.07    0.07</time>
   <time name="total">    0.09    0.09</time>
   <energy>
    <i name="e_fr_energy">    -43.30605543 </i>
    <i name="e_wo_entrp">    -43.30605465 </i>
    <i name="e_0_energy">    -43.30605504 </i>
   </energy>
  </scstep>
  <scstep>
   <time name="dav">    0.08    0.08</time>
   <time name="total">    0.09    0.09</time>
   <energy>
    <i name="e_fr_energy">    -43.29209702 </i>
    <i name="e_wo_entrp">    -43.29209675 </i>
    <i name="e_0_energy">    -43.29209689 </i>
   </energy>
  </scstep>
  <scstep>
   <time name="dav">    0.08    0.08</time>
   <time name="total">    0.08    0.09</time>
   <energy>
    <i name="alphaZ">     13.19624174 </i>
    <i name="ewald">   -908.31960852 </i>
    <i name="hartreedc">    -60.66264335 </i>
    <i name="XCdc">    -72.14955990 </i>
    <i name="pawpsdc">   4046.43784207 </i>
    <i name="pawaedc">  -3906.57004286 </i>
    <i name="eentropy">     -0.00000028 </i>
    <i name="bandstr">     20.28947608 </i>
    <i name="atom">    824.48621262 </i>
    <i name="e_fr_energy">    -43.29208239 </i>
    <i name="e_wo_entrp">    -43.29208212 </i>
    <i name="e_0_energy">    -43.29208226 </i>
   </energy>
  </scstep>
  <structure>
   <crystal>
    <varray name="basis" >
     <v>       5.46547701       0.00000000      -0.00000000 </v>
     <v>      -0.00000000       5.46547701      -0.00000000 </v>
     <v>      -0.00000000       0.00000000       5.46547701 </v>
    </varray>
    <i name="volume">    163.26166298 </i>
    <varray name="rec_basis" >
     <v>       0.18296665       0.00000000       0.00000000 </v>
     <v>      -0.00000000       0.18296665      -0.00000000 </v>
     <v>       0.00000000       0.00000000       0.18296665 </v>
    </varray>
   </crystal>
   <varray name="positions" >
    <v>       0.00000000      -0.00000000       0.00000000 </v>
    <v>       0.00000000       0.50000000       0.50000000 </v>
    <v>       0.50000000       0.00000000       0.50000000 </v>
    <v>       0.50000000       0.50000000       0.00000000 </v>
    <v>       0.25000000       0.25000000       0.25000000 </v>
    <v>       0.75000000       0.75000000       0.25000000 </v>
    <v>       0.75000000       0.25000000       0.75000000 </v>
    <v>       0.25000000       0.75000000       0.75000000 </v>
   </varray>
  </structure>
  <varray name="forces" >
   <v>      -0.00000000       0.00000000      -0.00000000 </v>
   <v>       0.00000000      -0.00000000       0.00000000 </v>
   <v>      -0.00000000       0.00000000       0.00000000 </v>
   <v>      -0.00000000       0.00000000      -0.00000000 </v>
   <v>       0.00000000      -0.00000000       0.00000000 </v>
   <v>       0.00000000      -0.00000000       0.00000000 </v>
   <v>      -0.00000000       0.00000000      -0.00000000 </v>
   <v>       0.00000000      -0.00000000      -0.00000000 </v>
  </varray>
  <varray name="stress" >
   <v>      -0.86419729       0.00000000      -0.00000000 </v>
   <v>       0.00000000      -0.86419729       0.00000000 </v>
   <v>       0.00000000      -0.00000000      -0.86419729 </v>
  </varray>
  <energy>
   <i name="e_fr_energy">    -43.29208239 </i>
   <i name="e_wo_entrp">    -43.29208226 </i>
   <i name="e_0_energy">     -0.00000028 </i>
  </energy>
  <time name="totalsc">    0.56    0.58</time>
 </calculation>
 <calculation>
  <scstep>
   <time name="dav">    0.07    0.07</time>
   <time name="total">    0.08    0.08</time>
   <energy>
    <i name="alphaZ">     13.20826468 </i>
    <i name="ewald">   -908.59537799 </i>
    <i name="hartreedc">    -60.58971644 </i>
    <i name="XCdc">    -72.14472900 </i>
    <i name="pawpsdc">   4097.37813131 </i>
    <i name="pawaedc">  -3957.49326292 </i>
    <i name="eentropy">     -0.00000028 </i>
    <i name="bandstr">     20.45846416 </i>
    <i name="atom">    824.48621262 </i>
    <i name="e_fr_energy">    -43.29201387 </i>
    <i name="e_wo_entrp">    -43.29201359 </i>
    <i name="e_0_energy">    -43.29201373 </i>
   </energy>
  </scstep>
  <scstep>
   <time name="dav">    0.05    0.05</time>
   <time name="total">    0.05    0.05</time>
   <energy>
    <i name="e_fr_energy">    -43.29201447 </i>
    <i name="e_wo_entrp">    -43.29201419 </i>
    <i name="e_0_energy">    -43.29201433 </i>
   </energy>
  </scstep>
  <scstep>
   <time name="dav">    0.05    0.05</time>
   <time name="total">    0.06    0.06</time>
   <energy>
    <i name="e_fr_energy">    -43.29201452 </i>
    <i name="e_wo_entrp">    -43.29201424 </i>
    <i name="e_0_energy">    -43.29201438 </i>
   </energy>
  </scstep>
  <scstep>
   <time name="dav">    0.05    0.05</time>
   <time name="total">    0.06    0.06</time>
   <energy>
    <i name="alphaZ">     13.20826468 </i>
    <i name="ewald">   -908.59537799 </i>
    <i name="hartreedc">    -60.56474588 </i>
    <i name="XCdc">    -72.14587851 </i>
    <i name="pawpsdc">   4095.69242429 </i>
    <i name="pawaedc">  -3955.80789241 </i>
    <i name="eentropy">     -0.00000028 </i>
    <i name="bandstr">     20.43498679 </i>
    <i name="atom">    824.48621262 </i>
    <i name="e_fr_energy">    -43.29200669 </i>
    <i name="e_wo_entrp">    -43.29200641 </i>
    <i name="e_0_energy">    -43.29200655 </i>
   </energy>
  </scstep>
  <structure>
   <crystal>
    <varray name="basis" >
     <v>       5.46381817       0.00000000      -0.00000000 </v>
     <v>      -0.00000000       5.46381817      -0.00000000 </v>
     <v>      -0.00000000       0.00000000       5.46381817 </v>
    </varray>
    <i name="volume">    163.11305254 </i>
    <varray name="rec_basis" >
     <v>       0.18302220       0.00000000       0.00000000 </v>
     <v>      -0.00000000       0.18302220      -0.00000000 </v>
     <v>       0.00000000       0.00000000       0.18302220 </v>
    </varray>
   </crystal>
   <varray name="positions" >
    <v>       0.00000000      -0.00000000       0.00000000 </v>
    <v>       0.00000000       0.50000000       0.50000000 </v>
    <v>       0.50000000       0.00000000       0.50000000 </v>
    <v>       0.50000000       0.50000000       0.00000000 </v>
    <v>       0.25000000       0.25000000       0.25000000 </v>
    <v>       0.75000000       0.75000000       0.25000000 </v>
    <v>       0.75000000       0.25000000       0.75000000 </v>
    <v>       0.25000000       0.75000000       0.75000000 </v>
   </varray>
  </structure>
  <varray name="forces" >
   <v>      -0.00000000       0.00000000       0.00000000 </v>
   <v>       0.00000000      -0.00000000       0.00000000 </v>
   <v>       0.00000000      -0.00000000       0.00000000 </v>
   <v>       0.00000000      -0.00000000       0.00000000 </v>
   <v>      -0.00000000       0.00000000      -0.00000000 </v>
   <v>      -0.00000000      -0.00000000      -0.00000000 </v>
   <v>      -0.00000000       0.00000000      -0.00000000 </v>
   <v>      -0.00000000       0.00000000      -0.00000000 </v>
  </varray>
  <varray name="stress" >
   <v>       0.30641118       0.00000000      -0.00000000 </v>
   <v>       0.00000000       0.30641118       0.00000000 </v>
   <v>      -0.00000000       0.00000000       0.30641118 </v>
  </varray>
  <energy>
   <i name="e_fr_energy">    -43.29200669 </i>
   <i name="e_wo_entrp">    -43.29200655 </i>
   <i name="e_0_energy">     -0.00000028 </i>
  </energy>
  <time name="totalsc">    0.31    0.33</time>
  <eigenvalues>
   <array>
    <dimension dim="1">band</dimension>
    <dimension dim="2">kpoint</dimension>
    <dimension dim="3">spin</dimension>
    <field>eigene</field>
    <field>occ</field>
    <set>
     <set comment="spin 1">
      <set comment="kpoint 1">
       <r>   -6.1890    1.0000 </r>
       <r>   -2.1099    1.0000 </r>
       <r>   -2.1099    1.0000 </r>
       <r>   -2.1099    1.0000 </r>
       <r>   -2.1099    1.0000 </r>
       <r>   -2.1099    1.0000 </r>
       <r>   -2.1099    1.0000 </r>
       <r>    2.8452    1.0000 </r>
       <r>    2.8452    1.0000 </r>
       <r>    2.8452    1.0000 </r>
       <r>    2.8452    1.0000 </r>
       <r>    2.8452    1.0000 </r>
       <r>    2.8452    1.0000 </r>
       <r>    5.6582    1.0000 </r>
       <r>    5.6582    1.0000 </r>
       <r>    5.6582    1.0000 </r>
       <r>    6.4103    0.0000 </r>
       <r>    6.4103    0.0000 </r>
       <r>    6.4103    0.0000 </r>
       <r>    6.4103    0.0000 </r>
       <r>    6.4103    0.0000 </r>
       <r>    6.4103    0.0000 </r>
       <r>    8.2160    0.0000 </r>
       <r>    8.2160    0.0000 </r>
       <r>    8.2160    0.0000 </r>
      </set>
      <set comment="kpoint 2">
       <r>   -6.0169    1.0000 </r>
       <r>   -3.5190    1.0000 </r>
       <r>   -2.0590    1.0000 </r>
       <r>   -2.0590    1.0000 </r>
       <r>   -2.0590    1.0000 </r>
       <r>   -2.0590    1.0000 </r>
       <r>   -0.4955    1.0000 </r>
       <r>    2.4488    1.0000 </r>
       <r>    2.4488    1.0000 </r>
       <r>    2.4488    1.0000 </r>
       <r>    2.4488    1.0000 </r>
       <r>    3.0008    1.0000 </r>
       <r>    3.0008    1.0000 </r>
       <r>    4.7007    1.0000 </r>
       <r>    5.0910    1.0000 </r>
       <r>    5.0910    1.0000 </r>
       <r>    6.2759    0.0000 </r>
       <r>    7.0111    0.0000 </r>
       <r>    7.2480    0.0000 </r>
       <r>    7.2480    0.0000 </r>
       <r>    7.2480    0.0000 </r>
       <r>    7.2480    0.0000 </r>
       <r>    7.8428    0.0000 </r>
       <r>    8.9940    0.0000 </r>
       <r>    8.9940    0.0000 </r>
      </set>
      <set comment="kpoint 3">
       <r>   -5.5043    1.0000 </r>
       <r>   -4.6636    1.0000 </r>
       <r>   -1.9701    1.0000 </r>
       <r>   -1.9701    1.0000 </r>
       <r>   -1.9701    1.0000 </r>
       <r>   -1.9701    1.0000 </r>
       <r>    1.2424    1.0000 </r>
       <r>    1.9496    1.0000 </r>
       <r>    1.9496    1.0000 </r>
       <r>    1.9496    1.0000 </r>
       <r>    1.9496    1.0000 </r>
       <r>    3.0178    1.0000 </r>
       <r>    3.4603    1.0000 </r>
       <r>    3.4603    1.0000 </r>
       <r>    4.1931    1.0000 </r>
       <r>    4.1931    1.0000 </r>
       <r>    6.5455    0.0000 </r>
       <r>    7.1329    0.0000 </r>
       <r>    8.1014    0.0000 </r>
       <r>    9.0941    0.0000 </r>
       <r>    9.0941    0.0000 </r>
       <r>    9.0941    0.0000 </r>
       <r>    9.0941    0.0000 </r>
       <r>    9.5254    0.0000 </r>
       <r>   10.5201    0.0000 </r>
      </set>
      <set comment="kpoint 4">
       <r>   -5.8469    1.0000 </r>
       <r>   -3.4036    1.0000 </r>
       <r>   -3.4036    1.0000 </r>
       <r>   -2.3395    1.0000 </r>
       <r>   -1.7358    1.0000 </r>
       <r>   -0.5808    1.0000 </r>
       <r>   -0.5808    1.0000 </r>
       <r>    1.6656    1.0000 </r>
       <r>    2.4905    1.0000 </r>
       <r>    2.4905    1.0000 </r>
       <r>    2.8123    1.0000 </r>
       <r>    2.8123    1.0000 </r>
       <r>    3.1171    1.0000 </r>
       <r>    3.6247    1.0000 </r>
       <r>    4.5184    1.0000 </r>
       <r>    5.4812    1.0000 </r>
       <r>    6.7234    0.0000 </r>
       <r>    7.1640    0.0000 </r>
       <r>    7.1640    0.0000 </r>
       <r>    7.7614    0.0000 </r>
       <r>    7.7614    0.0000 </r>
       <r>    8.5716    0.0000 </r>
       <r>    8.5778    0.0000 </r>
       <r>    8.7563    0.0000 </r>
       <r>    8.8167    0.0000 </r>
      </set>
      <set comment="kpoint 5">
       <r>   -5.3418    1.0000 </r>
       <r>   -4.5168    1.0000 </r>
       <r>   -3.0910    1.0000 </r>
       <r>   -2.6887    1.0000 </r>
       <r>   -1.3150    1.0000 </r>
       <r>   -0.8740    1.0000 </r>
       <r>    0.8953    1.0000 </r>
       <r>    1.3984    1.0000 </r>
       <r>    1.7464    1.0000 </r>
       <r>    2.2864    1.0000 </r>
       <r>    2.7170    1.0000 </r>
       <r>    2.8951    1.0000 </r>
       <r>    2.9875    1.0000 </r>
       <r>    3.6026    1.0000 </r>
       <r>    3.6110    1.0000 </r>
       <r>    4.6948    1.0000 </r>
       <r>    7.4482    0.0000 </r>
       <r>    7.8389    0.0000 </r>
       <r>    8.0065    0.0000 </r>
       <r>    8.7351    0.0000 </r>
       <r>    9.0511    0.0000 </r>
       <r>    9.3192    0.0000 </r>
       <r>    9.4508    0.0000 </r>
       <r>   10.0445    0.0000 </r>
       <r>   10.2910    0.0000 </r>
      </set>
      <set comment="kpoint 6">
       <r>   -4.8621    1.0000 </r>
       <r>   -4.0920    1.0000 </r>
       <r>   -4.0920    1.0000 </r>
       <r>   -3.4443    1.0000 </r>
       <r>   -0.6225    1.0000 </r>
       <r>    0.1534    1.0000 </r>
       <r>    0.1534    1.0000 </r>
       <r>    1.1979    1.0000 </r>
       <r>    1.4661    1.0000 </r>
       <r>    2.0337    1.0000 </r>
       <r>    2.0337    1.0000 </r>
       <r>    2.7067    1.0000 </r>
       <r>    3.8647    1.0000 </r>
       <r>    3.8933    1.0000 </r>
       <r>    3.8933    1.0000 </r>
       <r>    4.8193    1.0000 </r>
       <r>    7.5815    0.0000 </r>
       <r>    8.5190    0.0000 </r>
       <r>    8.8300    0.0000 </r>
       <r>    8.8300    0.0000 </r>
       <r>    9.3075    0.0000 </r>
       <r>    9.3075    0.0000 </r>
       <r>    9.6313    0.0000 </r>
       <r>    9.9520    0.0000 </r>
       <r>   10.3596    0.0000 </r>
      </set>
      <set comment="kpoint 7">
       <r>   -5.6798    1.0000 </r>
       <r>   -3.3248    1.0000 </r>
       <r>   -3.3248    1.0000 </r>
       <r>   -3.3248    1.0000 </r>
       <r>   -0.7382    1.0000 </r>
       <r>   -0.7382    1.0000 </r>
       <r>   -0.7382    1.0000 </r>
       <r>    2.0337    1.0000 </r>
       <r>    2.0337    1.0000 </r>
       <r>    2.0337    1.0000 </r>
       <r>    2.6644    1.0000 </r>
       <r>    3.2634    1.0000 </r>
       <r>    3.2634    1.0000 </r>
       <r>    3.2634    1.0000 </r>
       <r>    5.0848    1.0000 </r>
       <r>    5.0848    1.0000 </r>
       <r>    6.9182    0.0000 </r>
       <r>    6.9182    0.0000 </r>
       <r>    6.9182    0.0000 </r>
       <r>    7.8199    0.0000 </r>
       <r>    9.0094    0.0000 </r>
       <r>    9.0094    0.0000 </r>
       <r>    9.0445    0.0000 </r>
       <r>    9.0445    0.0000 </r>
       <r>    9.0445    0.0000 </r>
      </set>
      <set comment="kpoint 8">
       <r>   -5.1845    1.0000 </r>
       <r>   -4.3823    1.0000 </r>
       <r>   -3.1744    1.0000 </r>
       <r>   -3.1744    1.0000 </r>
       <r>   -1.0326    1.0000 </r>
       <r>   -1.0326    1.0000 </r>
       <r>    0.3779    1.0000 </r>
       <r>    1.4709    1.0000 </r>
       <r>    1.8808    1.0000 </r>
       <r>    1.8808    1.0000 </r>
       <r>    3.0660    1.0000 </r>
       <r>    3.2271    1.0000 </r>
       <r>    3.2271    1.0000 </r>
       <r>    3.6891    1.0000 </r>
       <r>    4.3451    1.0000 </r>
       <r>    4.3919    1.0000 </r>
       <r>    7.4483    0.0000 </r>
       <r>    8.0122    0.0000 </r>
       <r>    8.0122    0.0000 </r>
       <r>    8.0135    0.0000 </r>
       <r>    9.0090    0.0000 </r>
       <r>    9.7411    0.0000 </r>
       <r>    9.9355    0.0000 </r>
       <r>   10.0154    0.0000 </r>
       <r>   10.0154    0.0000 </r>
      </set>
      <set comment="kpoint 9">
       <r>   -4.7245    1.0000 </r>
       <r>   -4.0084    1.0000 </r>
       <r>   -4.0084    1.0000 </r>
       <r>   -3.5181    1.0000 </r>
       <r>   -0.9860    1.0000 </r>
       <r>   -0.4394    1.0000 </r>
       <r>   -0.4394    1.0000 </r>
       <r>    0.4076    1.0000 </r>
       <r>    2.2705    1.0000 </r>
       <r>    2.7917    1.0000 </r>
       <r>    2.7917    1.0000 </r>
       <r>    3.6362    1.0000 </r>
       <r>    3.9654    1.0000 </r>
       <r>    3.9833    1.0000 </r>
       <r>    3.9833    1.0000 </r>
       <r>    4.7533    1.0000 </r>
       <r>    7.7229    0.0000 </r>
       <r>    8.0190    0.0000 </r>
       <r>    8.3913    0.0000 </r>
       <r>    8.3913    0.0000 </r>
       <r>    8.9463    0.0000 </r>
       <r>    8.9463    0.0000 </r>
       <r>    9.2749    0.0000 </r>
       <r>    9.3593    0.0000 </r>
       <r>   10.2262    0.0000 </r>
      </set>
      <set comment="kpoint 10">
       <r>   -4.3429    1.0000 </r>
       <r>   -3.8484    1.0000 </r>
       <r>   -3.8484    1.0000 </r>
       <r>   -3.8484    1.0000 </r>
       <r>   -1.0959    1.0000 </r>
       <r>   -1.0959    1.0000 </r>
       <r>   -1.0959    1.0000 </r>
       <r>   -0.5533    1.0000 </r>
       <r>    3.6986    1.0000 </r>
       <r>    3.6986    1.0000 </r>
       <r>    3.6986    1.0000 </r>
       <r>    4.2284    1.0000 </r>
       <r>    4.2284    1.0000 </r>
       <r>    4.2284    1.0000 </r>
       <r>    4.5404    1.0000 </r>
       <r>    4.5404    1.0000 </r>
       <r>    7.2168    0.0000 </r>
       <r>    7.7654    0.0000 </r>
       <r>    7.7654    0.0000 </r>
       <r>    7.7654    0.0000 </r>
       <r>    8.9800    0.0000 </r>
       <r>    8.9800    0.0000 </r>
       <r>    8.9800    0.0000 </r>
       <r>    9.0906    0.0000 </r>
       <r>    9.0906    0.0000 </r>
      </set>
     </set>
    </set>
   </array>
  </eigenvalues>
  <separator name="orbital magnetization" >
   <v name="MAGDIPOLOUT">      0.00000000      0.00000000      0.00000000</v>
  </separator>
  <dos>
   <i name="efermi">      5.96168522 </i>
   <total>
    <array>
     <dimension dim="1">gridpoints</dimension>
     <dimension dim="2">spin</dimension>
     <field>energy</field>
     <field>total</field>
     <field>integrated</field>
     <set>
      <set comment="spin 1">
       <r>    -7.1890     0.0000     0.0000 </r>
       <r>    -7.1266     0.0000     0.0000 </r>
       <r>    -7.0642     0.0000     0.0000 </r>
       <r>    -7.0019     0.0000     0.0000 </r>
       <r>    -6.9395     0.0000     0.0000 </r>
       <r>    -6.8771     0.0000     0.0000 </r>
       <r>    -6.8148     0.0000     0.0000 </r>
       <r>    -6.7524     0.0000     0.0000 </r>
       <r>    -6.6900     0.0000     0.0000 </r>
       <r>    -6.6277     0.0000     0.0000 </r>
       <r>    -6.5653     0.0000     0.0000 </r>
       <r>    -6.5030     0.0000     0.0000 </r>
       <r>    -6.4406     0.0000     0.0000 </r>
       <r>    -6.3782     0.0009     0.0001 </r>
       <r>    -6.3159     0.0084     0.0006 </r>
       <r>    -6.2535     0.0376     0.0029 </r>
       <r>    -6.1911     0.0887     0.0085 </r>
       <r>    -6.1288     0.1578     0.0183 </r>
       <r>    -6.0664     0.3278     0.0387 </r>
       <r>    -6.0040     0.5554     0.0734 </r>
       <r>    -5.9417     0.6758     0.1155 </r>
       <r>    -5.8793     0.9047     0.1719 </r>
       <r>    -5.8170     1.1341     0.2427 </r>
       <r>    -5.7546     0.9866     0.3042 </r>
       <r>    -5.6922     0.8419     0.3567 </r>
       <r>    -5.6299     0.7700     0.4047 </r>
       <r>    -5.5675     0.6124     0.4429 </r>
       <r>    -5.5051     0.6380     0.4827 </r>
       <r>    -5.4428     0.9032     0.5390 </r>
       <r>    -5.3804     1.5817     0.6377 </r>
       <r>    -5.3180     2.3067     0.7815 </r>
       <r>    -5.2557     2.3723     0.9295 </r>
       <r>    -5.1933     2.3832     1.0781 </r>
       <r>    -5.1310     2.1036     1.2093 </r>
       <r>    -5.0686     1.0843     1.2769 </r>
       <r>    -5.0062     0.3346     1.2978 </r>
       <r>    -4.9439     0.3571     1.3200 </r>
       <r>    -4.8815     0.9046     1.3764 </r>
       <r>    -4.8191     1.5310     1.4719 </r>
       <r>    -4.7568     2.1907     1.6085 </r>
       <r>    -4.6944     2.6816     1.7758 </r>
       <r>    -4.6321     2.3076     1.9197 </r>
       <r>    -4.5697     1.9712     2.0426 </r>
       <r>    -4.5073     2.4416     2.1949 </r>
       <r>    -4.4450     2.8739     2.3741 </r>
       <r>    -4.3826     3.1265     2.5691 </r>
       <r>    -4.3202     2.7783     2.7423 </r>
       <r>    -4.2579     1.5344     2.8380 </r>
       <r>    -4.1955     0.8437     2.8907 </r>
       <r>    -4.1331     1.7718     3.0012 </r>
       <r>    -4.0708     3.9335     3.2465 </r>
       <r>    -4.0084     5.5199     3.5907 </r>
       <r>    -3.9461     4.8846     3.8953 </r>
       <r>    -3.8837     3.3459     4.1040 </r>
       <r>    -3.8213     2.5338     4.2620 </r>
       <r>    -3.7590     1.5780     4.3604 </r>
       <r>    -3.6966     0.5822     4.3967 </r>
       <r>    -3.6342     0.4488     4.4247 </r>
       <r>    -3.5719     1.4953     4.5180 </r>
       <r>    -3.5095     3.3283     4.7255 </r>
       <r>    -3.4471     4.6733     5.0170 </r>
       <r>    -3.3848     5.0043     5.3291 </r>
       <r>    -3.3224     4.5005     5.6097 </r>
       <r>    -3.2601     3.8819     5.8518 </r>
       <r>    -3.1977     4.5498     6.1356 </r>
       <r>    -3.1353     5.6125     6.4856 </r>
       <r>    -3.0730     4.7283     6.7805 </r>
       <r>    -3.0106     2.4790     6.9351 </r>
       <r>    -2.9482     0.7715     6.9832 </r>
       <r>    -2.8859     0.1462     6.9923 </r>
       <r>    -2.8235     0.1690     7.0028 </r>
       <r>    -2.7611     0.7666     7.0506 </r>
       <r>    -2.6988     1.7885     7.1622 </r>
       <r>    -2.6364     2.0128     7.2877 </r>
       <r>    -2.5741     1.0940     7.3559 </r>
       <r>    -2.5117     0.3070     7.3751 </r>
       <r>    -2.4493     0.1983     7.3874 </r>
       <r>    -2.3870     0.5900     7.4242 </r>
       <r>    -2.3246     1.0259     7.4882 </r>
       <r>    -2.2622     0.8938     7.5439 </r>
       <r>    -2.1999     0.6141     7.5822 </r>
       <r>    -2.1375     1.1775     7.6557 </r>
       <r>    -2.0751     2.5987     7.8177 </r>
       <r>    -2.0128     3.6616     8.0461 </r>
       <r>    -1.9504     3.3848     8.2572 </r>
       <r>    -1.8881     2.0444     8.3847 </r>
       <r>    -1.8257     0.9423     8.4434 </r>
       <r>    -1.7633     0.8783     8.4982 </r>
       <r>    -1.7010     1.0581     8.5642 </r>
       <r>    -1.6386     0.6981     8.6077 </r>
       <r>    -1.5762     0.2244     8.6217 </r>
       <r>    -1.5139     0.0489     8.6248 </r>
       <r>    -1.4515     0.1522     8.6343 </r>
       <r>    -1.3891     0.7414     8.6805 </r>
       <r>    -1.3268     1.7682     8.7908 </r>
       <r>    -1.2644     2.0817     8.9206 </r>
       <r>    -1.2021     1.5815     9.0192 </r>
       <r>    -1.1397     2.3218     9.1640 </r>
       <r>    -1.0773     5.0771     9.4807 </r>
       <r>    -1.0150     7.4160     9.9431 </r>
       <r>    -0.9526     6.7833    10.3662 </r>
       <r>    -0.8902     4.6455    10.6559 </r>
       <r>    -0.8279     3.3167    10.8627 </r>
       <r>    -0.7655     2.9062    11.0440 </r>
       <r>    -0.7031     3.0283    11.2328 </r>
       <r>    -0.6408     3.4741    11.4495 </r>
       <r>    -0.5784     4.3730    11.7222 </r>
       <r>    -0.5161     5.0892    12.0396 </r>
       <r>    -0.4537     5.4955    12.3823 </r>
       <r>    -0.3913     4.7687    12.6797 </r>
       <r>    -0.3290     2.4667    12.8335 </r>
       <r>    -0.2666     0.6548    12.8744 </r>
       <r>    -0.2042     0.0850    12.8797 </r>
       <r>    -0.1419     0.0054    12.8800 </r>
       <r>    -0.0795     0.0031    12.8802 </r>
       <r>    -0.0171     0.0458    12.8830 </r>
       <r>     0.0452     0.3392    12.9042 </r>
       <r>     0.1076     1.2042    12.9793 </r>
       <r>     0.1699     2.0686    13.1083 </r>
       <r>     0.2323     1.8445    13.2233 </r>
       <r>     0.2947     1.5867    13.3223 </r>
       <r>     0.3570     2.8779    13.5018 </r>
       <r>     0.4194     4.1153    13.7584 </r>
       <r>     0.4818     3.0444    13.9483 </r>
       <r>     0.5441     1.1203    14.0181 </r>
       <r>     0.6065     0.2036    14.0308 </r>
       <r>     0.6689     0.0222    14.0322 </r>
       <r>     0.7312     0.0591    14.0359 </r>
       <r>     0.7936     0.4003    14.0609 </r>
       <r>     0.8559     1.3164    14.1430 </r>
       <r>     0.9183     2.0853    14.2730 </r>
       <r>     0.9807     1.5967    14.3726 </r>
       <r>     1.0430     0.6309    14.4119 </r>
       <r>     1.1054     0.3903    14.4363 </r>
       <r>     1.1678     0.9329    14.4944 </r>
       <r>     1.2301     1.5420    14.5906 </r>
       <r>     1.2925     1.6416    14.6930 </r>
       <r>     1.3548     2.1950    14.8299 </r>
       <r>     1.4172     3.8258    15.0685 </r>
       <r>     1.4796     4.7048    15.3619 </r>
       <r>     1.5419     3.4430    15.5766 </r>
       <r>     1.6043     1.8619    15.6927 </r>
       <r>     1.6667     1.8870    15.8104 </r>
       <r>     1.7290     2.8443    15.9878 </r>
       <r>     1.7914     3.6640    16.2163 </r>
       <r>     1.8538     4.9010    16.5219 </r>
       <r>     1.9161     6.4908    16.9267 </r>
       <r>     1.9785     7.0018    17.3634 </r>
       <r>     2.0408     6.3641    17.7602 </r>
       <r>     2.1032     4.3872    18.0338 </r>
       <r>     2.1656     2.3265    18.1789 </r>
       <r>     2.2279     2.6073    18.3415 </r>
       <r>     2.2903     4.1504    18.6004 </r>
       <r>     2.3527     4.1184    18.8572 </r>
       <r>     2.4150     3.6263    19.0834 </r>
       <r>     2.4774     4.1610    19.3429 </r>
       <r>     2.5398     3.7021    19.5737 </r>
       <r>     2.6021     2.4934    19.7292 </r>
       <r>     2.6645     3.2679    19.9330 </r>
       <r>     2.7268     6.2014    20.3198 </r>
       <r>     2.7892     8.9250    20.8764 </r>
       <r>     2.8516     9.0848    21.4429 </r>
       <r>     2.9139     7.2225    21.8933 </r>
       <r>     2.9763     6.2267    22.2817 </r>
       <r>     3.0387     6.2965    22.6743 </r>
       <r>     3.1010     5.7415    23.0324 </r>
       <r>     3.1634     5.3070    23.3634 </r>
       <r>     3.2258     6.2879    23.7555 </r>
       <r>     3.2881     6.2152    24.1431 </r>
       <r>     3.3505     3.6489    24.3707 </r>
       <r>     3.4128     1.6455    24.4733 </r>
       <r>     3.4752     1.6492    24.5761 </r>
       <r>     3.5376     3.3737    24.7865 </r>
       <r>     3.5999     7.1315    25.2313 </r>
       <r>     3.6623    10.0802    25.8599 </r>
       <r>     3.7247     8.6062    26.3966 </r>
       <r>     3.7870     4.9756    26.7069 </r>
       <r>     3.8494     3.8690    26.9482 </r>
       <r>     3.9118     5.8943    27.3158 </r>
       <r>     3.9741     7.8778    27.8071 </r>
       <r>     4.0365     6.6880    28.2241 </r>
       <r>     4.0988     3.5102    28.4431 </r>
       <r>     4.1612     2.3327    28.5885 </r>
       <r>     4.2236     3.2776    28.7929 </r>
       <r>     4.2859     4.0434    29.0451 </r>
       <r>     4.3483     4.4798    29.3245 </r>
       <r>     4.4107     4.5277    29.6068 </r>
       <r>     4.4730     3.7400    29.8401 </r>
       <r>     4.5354     3.1956    30.0394 </r>
       <r>     4.5978     2.9244    30.2217 </r>
       <r>     4.6601     3.2641    30.4253 </r>
       <r>     4.7225     4.5345    30.7081 </r>
       <r>     4.7848     4.7442    31.0040 </r>
       <r>     4.8472     3.1824    31.2024 </r>
       <r>     4.9096     1.3961    31.2895 </r>
       <r>     4.9719     0.6756    31.3316 </r>
       <r>     5.0343     1.3072    31.4131 </r>
       <r>     5.0967     2.3415    31.5592 </r>
       <r>     5.1590     2.0999    31.6901 </r>
       <r>     5.2214     0.9109    31.7469 </r>
       <r>     5.2838     0.1977    31.7593 </r>
       <r>     5.3461     0.0973    31.7653 </r>
       <r>     5.4085     0.3825    31.7892 </r>
       <r>     5.4708     0.8956    31.8450 </r>
       <r>     5.5332     1.0338    31.9095 </r>
       <r>     5.5956     0.6631    31.9509 </r>
       <r>     5.6579     0.3827    31.9747 </r>
       <r>     5.7203     0.2578    31.9908 </r>
       <r>     5.7827     0.1171    31.9981 </r>
       <r>     5.8450     0.0270    31.9998 </r>
       <r>     5.9074     0.0030    32.0000 </r>
       <r>     5.9698     0.0002    32.0000 </r>
       <r>     6.0321     0.0004    32.0000 </r>
       <r>     6.0945     0.0075    32.0005 </r>
       <r>     6.1568     0.0634    32.0044 </r>
       <r>     6.2192     0.2595    32.0206 </r>
       <r>     6.2816     0.5413    32.0544 </r>
       <r>     6.3439     0.6800    32.0968 </r>
       <r>     6.4063     0.7099    32.1411 </r>
       <r>     6.4687     0.7109    32.1854 </r>
       <r>     6.5310     0.6932    32.2286 </r>
       <r>     6.5934     0.6628    32.2700 </r>
       <r>     6.6558     0.7190    32.3148 </r>
       <r>     6.7181     1.0204    32.3784 </r>
       <r>     6.7805     1.1407    32.4496 </r>
       <r>     6.8428     1.2421    32.5270 </r>
       <r>     6.9052     1.9636    32.6495 </r>
       <r>     6.9676     2.3908    32.7986 </r>
       <r>     7.0299     1.9333    32.9192 </r>
       <r>     7.0923     1.9756    33.0424 </r>
       <r>     7.1547     3.3190    33.2493 </r>
       <r>     7.2170     4.5498    33.5331 </r>
       <r>     7.2794     4.0671    33.7867 </r>
       <r>     7.3418     2.7760    33.9599 </r>
       <r>     7.4041     3.0751    34.1516 </r>
       <r>     7.4665     4.3605    34.4236 </r>
       <r>     7.5288     3.9120    34.6675 </r>
       <r>     7.5912     2.5696    34.8278 </r>
       <r>     7.6536     2.6544    34.9933 </r>
       <r>     7.7159     4.9919    35.3046 </r>
       <r>     7.7783     7.7725    35.7893 </r>
       <r>     7.8407     7.8034    36.2760 </r>
       <r>     7.9030     6.2216    36.6640 </r>
       <r>     7.9654     7.5760    37.1365 </r>
       <r>     8.0277    10.7407    37.8063 </r>
       <r>     8.0901     9.0788    38.3725 </r>
       <r>     8.1525     4.0998    38.6282 </r>
       <r>     8.2148     1.2670    38.7072 </r>
       <r>     8.2772     0.9583    38.7669 </r>
       <r>     8.3396     2.3521    38.9136 </r>
       <r>     8.4019     4.2379    39.1779 </r>
       <r>     8.4643     4.4119    39.4531 </r>
       <r>     8.5267     3.6893    39.6831 </r>
       <r>     8.5890     3.4018    39.8953 </r>
       <r>     8.6514     3.0134    40.0832 </r>
       <r>     8.7137     3.5160    40.3025 </r>
       <r>     8.7761     5.0900    40.6199 </r>
       <r>     8.8385     6.1128    41.0011 </r>
       <r>     8.9008     7.4625    41.4665 </r>
       <r>     8.9632    11.2510    42.1682 </r>
       <r>     9.0256    14.7638    43.0889 </r>
       <r>     9.0879    13.4114    43.9253 </r>
       <r>     9.1503     8.1936    44.4362 </r>
       <r>     9.2127     4.6453    44.7259 </r>
       <r>     9.2750     5.7757    45.0861 </r>
       <r>     9.3374     8.0473    45.5880 </r>
       <r>     9.3997     7.3223    46.0446 </r>
       <r>     9.4621     4.9373    46.3525 </r>
       <r>     9.5245     3.0458    46.5425 </r>
       <r>     9.5868     1.9996    46.6672 </r>
       <r>     9.6492     1.9292    46.7875 </r>
       <r>     9.7116     2.3979    46.9371 </r>
       <r>     9.7739     2.5175    47.0941 </r>
       <r>     9.8363     2.1309    47.2269 </r>
       <r>     9.8987     3.0204    47.4153 </r>
       <r>     9.9610     5.8931    47.7828 </r>
       <r>    10.0234     8.0869    48.2871 </r>
       <r>    10.0857     6.8030    48.7114 </r>
       <r>    10.1481     3.8681    48.9526 </r>
       <r>    10.2105     3.1435    49.1487 </r>
       <r>    10.2728     4.0963    49.4041 </r>
       <r>    10.3352     4.0511    49.6568 </r>
       <r>    10.3976     2.6649    49.8230 </r>
       <r>    10.4599     1.3081    49.9045 </r>
       <r>    10.5223     0.7435    49.9509 </r>
       <r>    10.5847     0.5066    49.9825 </r>
       <r>    10.6470     0.2244    49.9965 </r>
       <r>    10.7094     0.0503    49.9996 </r>
       <r>    10.7717     0.0054    50.0000 </r>
       <r>    10.8341     0.0003    50.0000 </r>
       <r>    10.8965     0.0000    50.0000 </r>
       <r>    10.9588     0.0000    50.0000 </r>
       <r>    11.0212     0.0000    50.0000 </r>
       <r>    11.0836     0.0000    50.0000 </r>
       <r>    11.1459     0.0000    50.0000 </r>
       <r>    11.2083     0.0000    50.0000 </r>
       <r>    11.2707     0.0000    50.0000 </r>
       <r>    11.3330     0.0000    50.0000 </r>
       <r>    11.3954     0.0000    50.0000 </r>
       <r>    11.4577     0.0000    50.0000 </r>
       <r>    11.5201     0.0000    50.0000 </r>
      </set>
     </set>
    </array>
   </total>
  </dos>
 </calculation>
 <structure name="finalpos" >
  <crystal>
   <varray name="basis" >
    <v>       5.46381817       0.00000000      -0.00000000 </v>
    <v>      -0.00000000       5.46381817      -0.00000000 </v>
    <v>      -0.00000000       0.00000000       5.46381817 </v>
   </varray>
   <i name="volume">    163.11305254 </i>
   <varray name="rec_basis" >
    <v>       0.18302220       0.00000000       0.00000000 </v>
    <v>      -0.00000000       0.18302220      -0.00000000 </v>
    <v>       0.00000000       0.00000000       0.18302220 </v>
   </varray>
  </crystal>
  <varray name="positions" >
   <v>       0.00000000      -0.00000000       0.00000000 </v>
   <v>       0.00000000       0.50000000       0.50000000 </v>
   <v>       0.50000000       0.00000000       0.50000000 </v>
   <v>       0.50000000       0.50000000       0.00000000 </v>
   <v>       0.25000000       0.25000000       0.25000000 </v>
   <v>       0.75000000       0.75000000       0.25000000 </v>
   <v>       0.75000000       0.25000000       0.75000000 </v>
   <v>       0.25000000       0.75000000       0.75000000 </v>
  </varray>
 </structure>
</modeling>
