diamond Si                              
           1
     5.545116    0.000000   -0.000000
    -0.000000    5.545116   -0.000000
    -0.000000    0.000000    5.545116
   Si
   8
Direct configuration=     1
   0.00000000  0.00000000  0.00000000
   0.00000000  0.50000000  0.50000000
   0.50000000  0.00000000  0.50000000
   0.50000000  0.50000000  0.00000000
   0.25000000  0.25000000  0.25000000
   0.75000000  0.75000000  0.25000000
   0.75000000  0.25000000  0.75000000
   0.25000000  0.75000000  0.75000000
diamond Si                              
           1
     5.465477    0.000000   -0.000000
    -0.000000    5.465477   -0.000000
    -0.000000    0.000000    5.465477
   Si
   8
Direct configuration=     2
   0.00000000 -0.00000000  0.00000000
   0.00000000  0.50000000  0.50000000
   0.50000000  0.00000000  0.50000000
   0.50000000  0.50000000  0.00000000
   0.25000000  0.25000000  0.25000000
   0.75000000  0.75000000  0.25000000
   0.75000000  0.25000000  0.75000000
   0.25000000  0.75000000  0.75000000
diamond Si                              
           1
     5.463818    0.000000   -0.000000
    -0.000000    5.463818   -0.000000
    -0.000000    0.000000    5.463818
   Si
   8
Direct configuration=     3
   0.00000000 -0.00000000  0.00000000
   0.00000000  0.50000000  0.50000000
   0.50000000  0.00000000  0.50000000
   0.50000000  0.50000000  0.00000000
   0.25000000  0.25000000  0.25000000
   0.75000000  0.75000000  0.25000000
   0.75000000  0.25000000  0.75000000
   0.25000000  0.75000000  0.75000000
diamond Si                              
           1
     5.463818    0.000000   -0.000000
    -0.000000    5.463818   -0.000000
    -0.000000    0.000000    5.463818
   Si
   8
Direct configuration=     4
   0.00000000 -0.00000000  0.00000000
   0.00000000  0.50000000  0.50000000
   0.50000000  0.00000000  0.50000000
   0.50000000  0.50000000  0.00000000
   0.25000000  0.25000000  0.25000000
   0.75000000  0.75000000  0.25000000
   0.75000000  0.25000000  0.75000000
   0.25000000  0.75000000  0.75000000
