diamond Si                              
   5.43100000000000     
     1.020922   -0.000000    0.000000
    -0.000000    1.020922    0.000000
     0.000000   -0.000000    1.020922
   Si
     8
Direct
  0.000000  0.000000  0.000000
  0.000000  0.500000  0.500000
  0.500000  0.000000  0.500000
  0.500000  0.500000  0.000000
  0.250000  0.250000  0.250000
  0.750000  0.750000  0.250000
  0.750000  0.250000  0.750000
  0.250000  0.750000  0.750000
 
   56   56   56
 -30.688     -26.113     -13.423      4.5989      24.227      41.811      54.641      61.438      62.392      58.827    
  52.662      45.734      38.913      32.571      26.926      22.073      18.014      14.692      12.017      9.8870    
  8.2052      6.8851      5.8557      5.0616      4.4607      4.0220      3.7232      3.5497      3.4927      3.5497    
  3.7232      4.0220      4.4607      5.0616      5.8557      6.8851      8.2052      9.8870      12.017      14.692    
  18.014      22.073      26.926      32.571      38.913      45.734      52.662      58.827      62.392      61.438    
  54.641      41.811      24.227      4.5989     -13.423     -26.113     -26.113     -21.698     -9.4552      7.9045    
  26.762      43.577      55.730      62.002      62.604      58.851      52.625      45.704      38.903      32.583    
  26.958      22.121      18.073      14.757      12.084      9.9549      8.2720      6.9501      5.9188      5.1229    
  4.5204      4.0805      3.7808      3.6068      3.5497      3.6068      3.7808      4.0805      4.5204      5.1229    
  5.9188      6.9501      8.2720      9.9549      12.084      14.757      18.073      22.121      26.958      32.583    
  38.903      45.704      52.625      58.851      62.604      62.002      55.730      43.577      26.762      7.9045    
 -9.4552     -21.698     -13.423     -9.4552      1.5215      17.015      33.706      48.364      58.629      63.447    
  63.090      58.840      52.477      45.592      38.856      32.608      27.048      22.260      18.247      14.951    
  12.288      10.160      8.4743      7.1474      6.1105      5.3093      4.7022      4.2587      3.9565      3.7808    
  3.7232      3.7808      3.9565      4.2587      4.7022      5.3093      6.1105      7.1474      8.4743      10.160    
  12.288      14.951      18.247      22.260      27.048      32.608      38.856      45.592      52.477      58.840    
  63.090      63.447      58.629      48.364      33.706      17.015      1.5215     -9.4552      4.5989      7.9045    
  17.015      29.766      43.286      54.809      62.361      65.128      63.464      58.590      52.125      45.336    
  38.733      32.619      27.177      22.480      18.529      15.272      12.627      10.506      8.8176      7.4840    
  6.4387      5.6291      5.0147      4.5652      4.2587      4.0805      4.0220      4.0805      4.2587      4.5652    
  5.0147      5.6291      6.4387      7.4840      8.8176      10.506      12.627      15.272      18.529      22.480    
  27.177      32.619      38.733      45.336      52.125      58.590      63.464      65.128      62.361      54.809    
  43.286      29.766      17.015      7.9045      24.227      26.762      33.706      43.286      53.168      61.139    
  65.674      66.236      63.260      57.872      51.455      44.861      38.481      32.581      27.320      22.763    
  18.911      15.715      13.105      10.998      9.3110      7.9714      6.9165      6.0965      5.4723      5.0147    
  4.7022      4.5204      4.4607      4.5204      4.7022      5.0147      5.4723      6.0965      6.9165      7.9714    
  9.3110      10.998      13.105      15.715      18.911      22.763      27.320      32.581      38.481      44.861    
  51.455      57.872      63.260      66.236      65.674      61.139      53.168      43.286      33.706      26.762    
  41.811      43.577      48.364      54.809      61.139      65.708      67.449      66.089      62.117      56.539    
  50.368      44.096      38.049      32.455      27.449      23.089      19.378      16.276      13.722      11.643    
  9.9668      8.6256      7.5626      6.7317      6.0965      5.6291      5.3093      5.1229      5.0616      5.1229    
  5.3093      5.6291      6.0965      6.7317      7.5626      8.6256      9.9668      11.643      13.722      16.276    
  19.378      23.089      27.449      32.455      38.049      44.096      50.368      56.539      62.117      66.089    
  67.449      65.708      61.139      54.809      48.364      43.577      54.641      55.730      58.629      62.361    
  65.674      67.449      67.023      64.347      59.925      54.564      48.810      43.000      37.404      32.211    
  27.538      23.438      19.919      16.950      14.482      12.454      10.802      9.4682      8.4023      7.5626    
  6.9165      6.4387      6.1105      5.9188      5.8557      5.9188      6.1105      6.4387      6.9165      7.5626    
  8.4023      9.4682      10.802      12.454      14.482      16.950      19.919      23.438      27.538      32.211    
  37.404      43.000      48.810      54.564      59.925      64.347      67.023      67.449      65.674      62.361    
  58.629      55.730      61.438      62.002      63.447      65.128      66.236      66.089      64.347      61.112    
  56.842      51.969      46.790      41.571      36.533      31.832      27.569      23.796      20.524      17.735    
  15.391      13.442      11.838      10.527      9.4682      8.6256      7.9714      7.4840      7.1474      6.9501    
  6.8851      6.9501      7.1474      7.4840      7.9714      8.6256      9.4682      10.527      11.838      13.442    
  15.391      17.735      20.524      23.796      27.569      31.832      36.533      41.571      46.790      51.969    
  56.842      61.112      64.347      66.089      66.236      65.128      63.447      62.002      62.392      62.604    
  63.090      63.464      63.260      62.117      59.925      56.842      53.083      48.851      44.368      39.842    
  35.449      31.318      27.538      24.156      21.191      18.635      16.460      14.630      13.102      11.838    
  10.802      9.9668      9.3110      8.8176      8.4743      8.2720      8.2052      8.2720      8.4743      8.8176    
  9.3110      9.9668      10.802      11.838      13.102      14.630      16.460      18.635      21.191      24.156    
  27.538      31.318      35.449      39.842      44.368      48.851      53.083      56.842      59.925      62.117    
  63.260      63.464      63.090      62.604      58.827      58.851      58.840      58.590      57.872      56.539    
  54.564      51.969      48.851      45.354      41.643      37.875      34.188      30.687      27.449      24.521    
  21.924      19.659      17.707      16.041      14.630      13.442      12.454      11.643      10.998      10.506    
  10.160      9.9549      9.8870      9.9549      10.160      10.506      10.998      11.643      12.454      13.442    
  14.630      16.041      17.707      19.659      21.924      24.521      27.449      30.687      34.188      37.875    
  41.643      45.354      48.851      51.969      54.564      56.539      57.872      58.590      58.840      58.851    
  52.662      52.625      52.477      52.125      51.455      50.368      48.810      46.790      44.368      41.643    
  38.731      35.748      32.798      29.966      27.320      24.902      22.735      20.822      19.153      17.707    
  16.460      15.391      14.482      13.722      13.105      12.627      12.288      12.084      12.017      12.084    
  12.288      12.627      13.105      13.722      14.482      15.391      16.460      17.707      19.153      20.822    
  22.735      24.902      27.320      29.966      32.798      35.748      38.731      41.643      44.368      46.790    
  48.810      50.368      51.455      52.125      52.477      52.625      45.734      45.704      45.592      45.336    
  44.861      44.096      43.000      41.571      39.842      37.875      35.748      33.541      31.334      29.195    
  27.177      25.318      23.639      22.143      20.822      19.659      18.635      17.735      16.950      16.276    
  15.715      15.272      14.951      14.757      14.692      14.757      14.951      15.272      15.715      16.276    
  16.950      17.735      18.635      19.659      20.822      22.143      23.639      25.318      27.177      29.195    
  31.334      33.541      35.748      37.875      39.842      41.571      43.000      44.096      44.861      45.336    
  45.592      45.704      38.913      38.903      38.856      38.733      38.481      38.049      37.404      36.533    
  35.449      34.188      32.798      31.334      29.855      28.412      27.048      25.790      24.654      23.639    
  22.735      21.924      21.191      20.524      19.919      19.378      18.911      18.529      18.247      18.073    
  18.014      18.073      18.247      18.529      18.911      19.378      19.919      20.524      21.191      21.924    
  22.735      23.639      24.654      25.790      27.048      28.412      29.855      31.334      32.798      34.188    
  35.449      36.533      37.404      38.049      38.481      38.733      38.856      38.903      32.571      32.583    
  32.608      32.619      32.581      32.455      32.211      31.832      31.318      30.687      29.966      29.195    
  28.412      27.657      26.958      26.334      25.790      25.318      24.902      24.521      24.156      23.796    
  23.438      23.089      22.763      22.480      22.260      22.121      22.073      22.121      22.260      22.480    
  22.763      23.089      23.438      23.796      24.156      24.521      24.902      25.318      25.790      26.334    
  26.958      27.657      28.412      29.195      29.966      30.687      31.318      31.832      32.211      32.455    
  32.581      32.619      32.608      32.583      26.926      26.958      27.048      27.177      27.320      27.449    
  27.538      27.569      27.538      27.449      27.320      27.177      27.048      26.958      26.926      26.958    
  27.048      27.177      27.320      27.449      27.538      27.569      27.538      27.449      27.320      27.177    
  27.048      26.958      26.926      26.958      27.048      27.177      27.320      27.449      27.538      27.569    
  27.538      27.449      27.320      27.177      27.048      26.958      26.926      26.958      27.048      27.177    
  27.320      27.449      27.538      27.569      27.538      27.449      27.320      27.177      27.048      26.958    
  22.073      22.121      22.260      22.480      22.763      23.089      23.438      23.796      24.156      24.521    
  24.902      25.318      25.790      26.334      26.958      27.657      28.412      29.195      29.966      30.687    
  31.318      31.832      32.211      32.455      32.581      32.619      32.608      32.583      32.571      32.583    
  32.608      32.619      32.581      32.455      32.211      31.832      31.318      30.687      29.966      29.195    
  28.412      27.657      26.958      26.334      25.790      25.318      24.902      24.521      24.156      23.796    
  23.438      23.089      22.763      22.480      22.260      22.121      18.014      18.073      18.247      18.529    
  18.911      19.378      19.919      20.524      21.191      21.924      22.735      23.639      24.654      25.790    
  27.048      28.412      29.855      31.334      32.798      34.188      35.449      36.533      37.404      38.049    
  38.481      38.733      38.856      38.903      38.913      38.903      38.856      38.733      38.481      38.049    
  37.404      36.533      35.449      34.188      32.798      31.334      29.855      28.412      27.048      25.790    
  24.654      23.639      22.735      21.924      21.191      20.524      19.919      19.378      18.911      18.529    
  18.247      18.073      14.692      14.757      14.951      15.272      15.715      16.276      16.950      17.735    
  18.635      19.659      20.822      22.143      23.639      25.318      27.177      29.195      31.334      33.541    
  35.748      37.875      39.842      41.571      43.000      44.096      44.861      45.336      45.592      45.704    
  45.734      45.704      45.592      45.336      44.861      44.096      43.000      41.571      39.842      37.875    
  35.748      33.541      31.334      29.195      27.177      25.318      23.639      22.143      20.822      19.659    
  18.635      17.735      16.950      16.276      15.715      15.272      14.951      14.757      12.017      12.084    
  12.288      12.627      13.105      13.722      14.482      15.391      16.460      17.707      19.153      20.822    
  22.735      24.902      27.320      29.966      32.798      35.748      38.731      41.643      44.368      46.790    
  48.810      50.368      51.455      52.125      52.477      52.625      52.662      52.625      52.477      52.125    
  51.455      50.368      48.810      46.790      44.368      41.643      38.731      35.748      32.798      29.966    
  27.320      24.902      22.735      20.822      19.153      17.707      16.460      15.391      14.482      13.722    
  13.105      12.627      12.288      12.084      9.8870      9.9549      10.160      10.506      10.998      11.643    
  12.454      13.442      14.630      16.041      17.707      19.659      21.924      24.521      27.449      30.687    
  34.188      37.875      41.643      45.354      48.851      51.969      54.564      56.539      57.872      58.590    
  58.840      58.851      58.827      58.851      58.840      58.590      57.872      56.539      54.564      51.969    
  48.851      45.354      41.643      37.875      34.188      30.687      27.449      24.521      21.924      19.659    
  17.707      16.041      14.630      13.442      12.454      11.643      10.998      10.506      10.160      9.9549    
  8.2052      8.2720      8.4743      8.8176      9.3110      9.9668      10.802      11.838      13.102      14.630    
  16.460      18.635      21.191      24.156      27.538      31.318      35.449      39.842      44.368      48.851    
  53.083      56.842      59.925      62.117      63.260      63.464      63.090      62.604      62.392      62.604    
  63.090      63.464      63.260      62.117      59.925      56.842      53.083      48.851      44.368      39.842    
  35.449      31.318      27.538      24.156      21.191      18.635      16.460      14.630      13.102      11.838    
  10.802      9.9668      9.3110      8.8176      8.4743      8.2720      6.8851      6.9501      7.1474      7.4840    
  7.9714      8.6256      9.4682      10.527      11.838      13.442      15.391      17.735      20.524      23.796    
  27.569      31.832      36.533      41.571      46.790      51.969      56.842      61.112      64.347      66.089    
  66.236      65.128      63.447      62.002      61.438      62.002      63.447      65.128      66.236      66.089    
  64.347      61.112      56.842      51.969      46.790      41.571      36.533      31.832      27.569      23.796    
  20.524      17.735      15.391      13.442      11.838      10.527      9.4682      8.6256      7.9714      7.4840    
  7.1474      6.9501      5.8557      5.9188      6.1105      6.4387      6.9165      7.5626      8.4023      9.4682    
  10.802      12.454      14.482      16.950      19.919      23.438      27.538      32.211      37.404      43.000    
  48.810      54.564      59.925      64.347      67.023      67.449      65.674      62.361      58.629      55.730    
  54.641      55.730      58.629      62.361      65.674      67.449      67.023      64.347      59.925      54.564    
  48.810      43.000      37.404      32.211      27.538      23.438      19.919      16.950      14.482      12.454    
  10.802      9.4682      8.4023      7.5626      6.9165      6.4387      6.1105      5.9188      5.0616      5.1229    
  5.3093      5.6291      6.0965      6.7317      7.5626      8.6256      9.9668      11.643      13.722      16.276    
  19.378      23.089      27.449      32.455      38.049      44.096      50.368      56.539      62.117      66.089    
  67.449      65.708      61.139      54.809      48.364      43.577      41.811      43.577      48.364      54.809    
  61.139      65.708      67.449      66.089      62.117      56.539      50.368      44.096      38.049      32.455    
  27.449      23.089      19.378      16.276      13.722      11.643      9.9668      8.6256      7.5626      6.7317    
  6.0965      5.6291      5.3093      5.1229      4.4607      4.5204      4.7022      5.0147      5.4723      6.0965    
  6.9165      7.9714      9.3110      10.998      13.105      15.715      18.911      22.763      27.320      32.581    
  38.481      44.861      51.455      57.872      63.260      66.236      65.674      61.139      53.168      43.286    
  33.706      26.762      24.227      26.762      33.706      43.286      53.168      61.139      65.674      66.236    
  63.260      57.872      51.455      44.861      38.481      32.581      27.320      22.763      18.911      15.715    
  13.105      10.998      9.3110      7.9714      6.9165      6.0965      5.4723      5.0147      4.7022      4.5204    
  4.0220      4.0805      4.2587      4.5652      5.0147      5.6291      6.4387      7.4840      8.8176      10.506    
  12.627      15.272      18.529      22.480      27.177      32.619      38.733      45.336      52.125      58.590    
  63.464      65.128      62.361      54.809      43.286      29.766      17.015      7.9045      4.5989      7.9045    
  17.015      29.766      43.286      54.809      62.361      65.128      63.464      58.590      52.125      45.336    
  38.733      32.619      27.177      22.480      18.529      15.272      12.627      10.506      8.8176      7.4840    
  6.4387      5.6291      5.0147      4.5652      4.2587      4.0805      3.7232      3.7808      3.9565      4.2587    
  4.7022      5.3093      6.1105      7.1474      8.4743      10.160      12.288      14.951      18.247      22.260    
  27.048      32.608      38.856      45.592      52.477      58.840      63.090      63.447      58.629      48.364    
  33.706      17.015      1.5215     -9.4552     -13.423     -9.4552      1.5215      17.015      33.706      48.364    
  58.629      63.447      63.090      58.840      52.477      45.592      38.856      32.608      27.048      22.260    
  18.247      14.951      12.288      10.160      8.4743      7.1474      6.1105      5.3093      4.7022      4.2587    
  3.9565      3.7808      3.5497      3.6068      3.7808      4.0805      4.5204      5.1229      5.9188      6.9501    
  8.2720      9.9549      12.084      14.757      18.073      22.121      26.958      32.583      38.903      45.704    
  52.625      58.851      62.604      62.002      55.730      43.577      26.762      7.9045     -9.4552     -21.698    
 -26.113     -21.698     -9.4552      7.9045      26.762      43.577      55.730      62.002      62.604      58.851    
  52.625      45.704      38.903      32.583      26.958      22.121      18.073      14.757      12.084      9.9549    
  8.2720      6.9501      5.9188      5.1229      4.5204      4.0805      3.7808      3.6068      3.4927      3.5497    
  3.7232      4.0220      4.4607      5.0616      5.8557      6.8851      8.2052      9.8870      12.017      14.692    
  18.014      22.073      26.926      32.571      38.913      45.734      52.662      58.827      62.392      61.438    
  54.641      41.811      24.227      4.5989     -13.423     -26.113     -30.688     -26.113     -13.423      4.5989    
  24.227      41.811      54.641      61.438      62.392      58.827      52.662      45.734      38.913      32.571    
  26.926      22.073      18.014      14.692      12.017      9.8870      8.2052      6.8851      5.8557      5.0616    
  4.4607      4.0220      3.7232      3.5497      3.5497      3.6068      3.7808      4.0805      4.5204      5.1229    
  5.9188      6.9501      8.2720      9.9549      12.084      14.757      18.073      22.121      26.958      32.583    
  38.903      45.704      52.625      58.851      62.604      62.002      55.730      43.577      26.762      7.9045    
 -9.4552     -21.698     -26.113     -21.698     -9.4552      7.9045      26.762      43.577      55.730      62.002    
  62.604      58.851      52.625      45.704      38.903      32.583      26.958      22.121      18.073      14.757    
  12.084      9.9549      8.2720      6.9501      5.9188      5.1229      4.5204      4.0805      3.7808      3.6068    
  3.7232      3.7808      3.9565      4.2587      4.7022      5.3093      6.1105      7.1474      8.4743      10.160    
  12.288      14.951      18.247      22.260      27.048      32.608      38.856      45.592      52.477      58.840    
  63.090      63.447      58.629      48.364      33.706      17.015      1.5215     -9.4552     -13.423     -9.4552    
  1.5215      17.015      33.706      48.364      58.629      63.447      63.090      58.840      52.477      45.592    
  38.856      32.608      27.048      22.260      18.247      14.951      12.288      10.160      8.4743      7.1474    
  6.1105      5.3093      4.7022      4.2587      3.9565      3.7808      4.0220      4.0805      4.2587      4.5652    
  5.0147      5.6291      6.4387      7.4840      8.8176      10.506      12.627      15.272      18.529      22.480    
  27.177      32.619      38.733      45.336      52.125      58.590      63.464      65.128      62.361      54.809    
  43.286      29.766      17.015      7.9045      4.5989      7.9045      17.015      29.766      43.286      54.809    
  62.361      65.128      63.464      58.590      52.125      45.336      38.733      32.619      27.177      22.480    
  18.529      15.272      12.627      10.506      8.8176      7.4840      6.4387      5.6291      5.0147      4.5652    
  4.2587      4.0805      4.4607      4.5204      4.7022      5.0147      5.4723      6.0965      6.9165      7.9714    
  9.3110      10.998      13.105      15.715      18.911      22.763      27.320      32.581      38.481      44.861    
  51.455      57.872      63.260      66.236      65.674      61.139      53.168      43.286      33.706      26.762    
  24.227      26.762      33.706      43.286      53.168      61.139      65.674      66.236      63.260      57.872    
  51.455      44.861      38.481      32.581      27.320      22.763      18.911      15.715      13.105      10.998    
  9.3110      7.9714      6.9165      6.0965      5.4723      5.0147      4.7022      4.5204      5.0616      5.1229    
  5.3093      5.6291      6.0965      6.7317      7.5626      8.6256      9.9668      11.643      13.722      16.276    
  19.378      23.089      27.449      32.455      38.049      44.096      50.368      56.539      62.117      66.089    
  67.449      65.708      61.139      54.809      48.364      43.577      41.811      43.577      48.364      54.809    
  61.139      65.708      67.449      66.089      62.117      56.539      50.368      44.096      38.049      32.455    
  27.449      23.089      19.378      16.276      13.722      11.643      9.9668      8.6256      7.5626      6.7317    
  6.0965      5.6291      5.3093      5.1229      5.8557      5.9188      6.1105      6.4387      6.9165      7.5626    
  8.4023      9.4682      10.802      12.454      14.482      16.950      19.919      23.438      27.538      32.211    
  37.404      43.000      48.810      54.564      59.925      64.347      67.023      67.449      65.674      62.361    
  58.629      55.730      54.641      55.730      58.629      62.361      65.674      67.449      67.023      64.347    
  59.925      54.564      48.810      43.000      37.404      32.211      27.538      23.438      19.919      16.950    
  14.482      12.454      10.802      9.4682      8.4023      7.5626      6.9165      6.4387      6.1105      5.9188    
  6.8851      6.9501      7.1474      7.4840      7.9714      8.6256      9.4682      10.527      11.838      13.442    
  15.391      17.735      20.524      23.796      27.569      31.832      36.533      41.571      46.790      51.969    
  56.842      61.112      64.347      66.089      66.236      65.128      63.447      62.002      61.438      62.002    
  63.447      65.128      66.236      66.089      64.347      61.112      56.842      51.969      46.790      41.571    
  36.533      31.832      27.569      23.796      20.524      17.735      15.391      13.442      11.838      10.527    
  9.4682      8.6256      7.9714      7.4840      7.1474      6.9501      8.2052      8.2720      8.4743      8.8176    
  9.3110      9.9668      10.802      11.838      13.102      14.630      16.460      18.635      21.191      24.156    
  27.538      31.318      35.449      39.842      44.368      48.851      53.083      56.842      59.925      62.117    
  63.260      63.464      63.090      62.604      62.392      62.604      63.090      63.464      63.260      62.117    
  59.925      56.842      53.083      48.851      44.368      39.842      35.449      31.318      27.538      24.156    
  21.191      18.635      16.460      14.630      13.102      11.838      10.802      9.9668      9.3110      8.8176    
  8.4743      8.2720      9.8870      9.9549      10.160      10.506      10.998      11.643      12.454      13.442    
  14.630      16.041      17.707      19.659      21.924      24.521      27.449      30.687      34.188      37.875    
  41.643      45.354      48.851      51.969      54.564      56.539      57.872      58.590      58.840      58.851    
  58.827      58.851      58.840      58.590      57.872      56.539      54.564      51.969      48.851      45.354    
  41.643      37.875      34.188      30.687      27.449      24.521      21.924      19.659      17.707      16.041    
  14.630      13.442      12.454      11.643      10.998      10.506      10.160      9.9549      12.017      12.084    
  12.288      12.627      13.105      13.722      14.482      15.391      16.460      17.707      19.153      20.822    
  22.735      24.902      27.320      29.966      32.798      35.748      38.731      41.643      44.368      46.790    
  48.810      50.368      51.455      52.125      52.477      52.625      52.662      52.625      52.477      52.125    
  51.455      50.368      48.810      46.790      44.368      41.643      38.731      35.748      32.798      29.966    
  27.320      24.902      22.735      20.822      19.153      17.707      16.460      15.391      14.482      13.722    
  13.105      12.627      12.288      12.084      14.692      14.757      14.951      15.272      15.715      16.276    
  16.950      17.735      18.635      19.659      20.822      22.143      23.639      25.318      27.177      29.195    
  31.334      33.541      35.748      37.875      39.842      41.571      43.000      44.096      44.861      45.336    
  45.592      45.704      45.734      45.704      45.592      45.336      44.861      44.096      43.000      41.571    
  39.842      37.875      35.748      33.541      31.334      29.195      27.177      25.318      23.639      22.143    
  20.822      19.659      18.635      17.735      16.950      16.276      15.715      15.272      14.951      14.757    
  18.014      18.073      18.247      18.529      18.911      19.378      19.919      20.524      21.191      21.924    
  22.735      23.639      24.654      25.790      27.048      28.412      29.855      31.334      32.798      34.188    
  35.449      36.533      37.404      38.049      38.481      38.733      38.856      38.903      38.913      38.903    
  38.856      38.733      38.481      38.049      37.404      36.533      35.449      34.188      32.798      31.334    
  29.855      28.412      27.048      25.790      24.654      23.639      22.735      21.924      21.191      20.524    
  19.919      19.378      18.911      18.529      18.247      18.073      22.073      22.121      22.260      22.480    
  22.763      23.089      23.438      23.796      24.156      24.521      24.902      25.318      25.790      26.334    
  26.958      27.657      28.412      29.195      29.966      30.687      31.318      31.832      32.211      32.455    
  32.581      32.619      32.608      32.583      32.571      32.583      32.608      32.619      32.581      32.455    
  32.211      31.832      31.318      30.687      29.966      29.195      28.412      27.657      26.958      26.334    
  25.790      25.318      24.902      24.521      24.156      23.796      23.438      23.089      22.763      22.480    
  22.260      22.121      26.926      26.958      27.048      27.177      27.320      27.449      27.538      27.569    
  27.538      27.449      27.320      27.177      27.048      26.958      26.926      26.958      27.048      27.177    
  27.320      27.449      27.538      27.569      27.538      27.449      27.320      27.177      27.048      26.958    
  26.926      26.958      27.048      27.177      27.320      27.449      27.538      27.569      27.538      27.449    
  27.320      27.177      27.048      26.958      26.926      26.958      27.048      27.177      27.320      27.449    
  27.538      27.569      27.538      27.449      27.320      27.177      27.048      26.958      32.571      32.583    
  32.608      32.619      32.581      32.455      32.211      31.832      31.318      30.687      29.966      29.195    
  28.412      27.657      26.958      26.334      25.790      25.318      24.902      24.521      24.156      23.796    
  23.438      23.089      22.763      22.480      22.260      22.121      22.073      22.121      22.260      22.480    