diamond Si                              
   5.43100000000000     
     1.006320   -0.000000    0.000000
    -0.000000    1.006320    0.000000
     0.000000   -0.000000    1.006320
   Si
     8
Direct
 -0.000000 -0.000000  0.000000
  0.000000  0.500000  0.500000
  0.500000 -0.000000  0.500000
  0.500000  0.500000  0.000000
  0.250000  0.250000  0.250000
  0.750000  0.750000  0.250000
  0.750000  0.250000  0.750000
  0.250000  0.750000  0.750000
 
   56   56   56
 -.31066537769E+02 -.26372761098E+02 -.13363158862E+02 0.50737512337E+01 0.25084366520E+02
 0.42906874918E+02 0.55774846069E+02 0.62418569262E+02 0.63093161614E+02 0.59218291800E+02
 0.52799334923E+02 0.45703618392E+02 0.38767410808E+02 0.32356756990E+02 0.26681260655E+02
 0.21823993709E+02 0.17776958050E+02 0.14474674494E+02 0.11821911848E+02 0.97143525921E+01
 0.80524714062E+01 0.67494662784E+01 0.57343808101E+01 0.49518586897E+01 0.43600937858E+01
 0.39282946345E+01 0.36344725308E+01 0.34638561016E+01 0.34079148757E+01 0.34638561016E+01
 0.36344725308E+01 0.39282946345E+01 0.43600937858E+01 0.49518586897E+01 0.57343808101E+01
 0.67494662784E+01 0.80524714062E+01 0.97143525921E+01 0.11821911848E+02 0.14474674494E+02
 0.17776958050E+02 0.21823993709E+02 0.26681260655E+02 0.32356756990E+02 0.38767410808E+02
 0.45703618392E+02 0.52799334923E+02 0.59218291800E+02 0.63093161614E+02 0.62418569262E+02
 0.55774846069E+02 0.42906874918E+02 0.25084366520E+02 0.50737512337E+01 -.13363158862E+02
 -.26372761098E+02 -.26372761098E+02 -.21844338772E+02 -.93014763149E+01 0.84474706859E+01
 0.27659340990E+02 0.44686911133E+02 0.56858955508E+02 0.62966537554E+02 0.63286532207E+02
 0.59225785330E+02 0.52752489255E+02 0.45667284711E+02 0.38752631932E+02 0.32366001061E+02
 0.26711976746E+02 0.21871246257E+02 0.17835314795E+02 0.14539338839E+02 0.11889223982E+02
 0.97818560257E+01 0.81187411890E+01 0.68138466539E+01 0.57967229467E+01 0.50123058488E+01
 0.44189321743E+01 0.39858671134E+01 0.36911386962E+01 0.35199785269E+01 0.34638561016E+01
 0.35199785269E+01 0.36911386962E+01 0.39858671134E+01 0.44189321743E+01 0.50123058488E+01
 0.57967229467E+01 0.68138466539E+01 0.81187411890E+01 0.97818560257E+01 0.11889223982E+02
 0.14539338839E+02 0.17835314795E+02 0.21871246257E+02 0.26711976746E+02 0.32366001061E+02
 0.38752631932E+02 0.45667284711E+02 0.52752489255E+02 0.59225785330E+02 0.63286532207E+02
 0.62966537554E+02 0.56858955508E+02 0.44686911133E+02 0.27659340990E+02 0.84474706859E+01
 -.93014763149E+01 -.21844338772E+02 -.13363158862E+02 -.93014763149E+01 0.19247635512E+01
 0.17735611994E+02 0.34702212718E+02 0.49502759775E+02 0.59735374167E+02 0.64361607975E+02
 0.63717177632E+02 0.59169130521E+02 0.52576741373E+02 0.45536199751E+02 0.38693962596E+02
 0.32384332477E+02 0.26797966180E+02 0.22009124454E+02 0.18008237468E+02 0.14732570059E+02
 0.12091516818E+02 0.99855985009E+01 0.83194291852E+01 0.70093047920E+01 0.59863312988E+01
 0.51963660875E+01 0.45982225058E+01 0.41613758865E+01 0.38639305197E+01 0.36911386962E+01
 0.36344725308E+01 0.36911386962E+01 0.38639305197E+01 0.41613758865E+01 0.45982225058E+01
 0.51963660875E+01 0.59863312988E+01 0.70093047920E+01 0.83194291852E+01 0.99855985009E+01
 0.12091516818E+02 0.14732570059E+02 0.18008237468E+02 0.22009124454E+02 0.26797966180E+02
 0.32384332477E+02 0.38693962596E+02 0.45536199751E+02 0.52576741373E+02 0.59169130521E+02
 0.63717177632E+02 0.64361607975E+02 0.59735374167E+02 0.49502759775E+02 0.34702212718E+02
 0.17735611994E+02 0.19247635512E+01 -.93014763149E+01 0.50737512337E+01 0.84474706859E+01
 0.17735611994E+02 0.30701536462E+02 0.44387662949E+02 0.55958023194E+02 0.63409684251E+02
 0.65952173108E+02 0.63999789256E+02 0.58849520351E+02 0.52182632147E+02 0.45252051344E+02
 0.38552996096E+02 0.32386063899E+02 0.26922022582E+02 0.22226540296E+02 0.18289436667E+02
 0.15052034255E+02 0.12429727365E+02 0.10329131644E+02 0.86600561910E+01 0.73427294930E+01
 0.63109511825E+01 0.55122538396E+01 0.49063948322E+01 0.44633290300E+01 0.41613758865E+01
 0.39858671134E+01 0.39282946345E+01 0.39858671134E+01 0.41613758865E+01 0.44633290300E+01
 0.49063948322E+01 0.55122538396E+01 0.63109511825E+01 0.73427294930E+01 0.86600561910E+01
 0.10329131644E+02 0.12429727365E+02 0.15052034255E+02 0.18289436667E+02 0.22226540296E+02
 0.26922022582E+02 0.32386063899E+02 0.38552996096E+02 0.45252051344E+02 0.52182632147E+02
 0.58849520351E+02 0.63999789256E+02 0.65952173108E+02 0.63409684251E+02 0.55958023194E+02
 0.44387662949E+02 0.30701536462E+02 0.17735611994E+02 0.84474706859E+01 0.25084366520E+02
 0.27659340990E+02 0.34702212718E+02 0.44387662949E+02 0.54320648949E+02 0.62241205462E+02
 0.66613316755E+02 0.66927855104E+02 0.63674304299E+02 0.58045897446E+02 0.51458849846E+02
 0.44740723990E+02 0.38279244092E+02 0.32335943842E+02 0.27059422778E+02 0.22506855656E+02
 0.18669083498E+02 0.15493871411E+02 0.12905170668E+02 0.10818067162E+02 0.91495869683E+01
 0.78255115222E+01 0.67835778659E+01 0.59739179261E+01 0.53578960100E+01 0.49063948322E+01
 0.45982225058E+01 0.44189321743E+01 0.43600937858E+01 0.44189321743E+01 0.45982225058E+01
 0.49063948322E+01 0.53578960100E+01 0.59739179261E+01 0.67835778659E+01 0.78255115222E+01
 0.91495869683E+01 0.10818067162E+02 0.12905170668E+02 0.15493871411E+02 0.18669083498E+02
 0.22506855656E+02 0.27059422778E+02 0.32335943842E+02 0.38279244092E+02 0.44740723990E+02
 0.51458849846E+02 0.58045897446E+02 0.63674304299E+02 0.66927855104E+02 0.66613316755E+02
 0.62241205462E+02 0.54320648949E+02 0.44387662949E+02 0.34702212718E+02 0.27659340990E+02
 0.42906874918E+02 0.44686911133E+02 0.49502759775E+02 0.55958023194E+02 0.62241205462E+02
 0.66683989382E+02 0.68220626569E+02 0.66611353166E+02 0.62394835549E+02 0.56624756565E+02
 0.50311393389E+02 0.43936864544E+02 0.37825065294E+02 0.32197962502E+02 0.27182940431E+02
 0.22830595818E+02 0.19135157412E+02 0.16053264707E+02 0.13519710542E+02 0.11460102888E+02
 0.98004812044E+01 0.84737255223E+01 0.74228229027E+01 0.66016013700E+01 0.59739179261E+01
 0.55122538396E+01 0.51963660875E+01 0.50123058488E+01 0.49518586897E+01 0.50123058488E+01
 0.51963660875E+01 0.55122538396E+01 0.59739179261E+01 0.66016013700E+01 0.74228229027E+01
 0.84737255223E+01 0.98004812044E+01 0.11460102888E+02 0.13519710542E+02 0.16053264707E+02
 0.19135157412E+02 0.22830595818E+02 0.27182940431E+02 0.32197962502E+02 0.37825065294E+02
 0.43936864544E+02 0.50311393389E+02 0.56624756565E+02 0.62394835549E+02 0.66611353166E+02
 0.68220626569E+02 0.66683989382E+02 0.62241205462E+02 0.55958023194E+02 0.49502759775E+02
 0.44686911133E+02 0.55774846069E+02 0.56858955508E+02 0.59735374167E+02 0.63409684251E+02
 0.66613316755E+02 0.68220626569E+02 0.67584494625E+02 0.64685334580E+02 0.60068492330E+02
 0.54561478587E+02 0.48693641511E+02 0.42803579826E+02 0.37158499631E+02 0.31943685820E+02
 0.27268258056E+02 0.23178953718E+02 0.19675689723E+02 0.16725856064E+02 0.14276662828E+02
 0.12265659641E+02 0.10629255986E+02 0.93087586579E+01 0.82536983982E+01 0.74228229027E+01
 0.67835778659E+01 0.63109511825E+01 0.59863312988E+01 0.57967229467E+01 0.57343808101E+01
 0.57967229467E+01 0.59863312988E+01 0.63109511825E+01 0.67835778659E+01 0.74228229027E+01
 0.82536983982E+01 0.93087586579E+01 0.10629255986E+02 0.12265659641E+02 0.14276662828E+02
 0.16725856064E+02 0.19675689723E+02 0.23178953718E+02 0.27268258056E+02 0.31943685820E+02
 0.37158499631E+02 0.42803579826E+02 0.48693641511E+02 0.54561478587E+02 0.60068492330E+02
 0.64685334580E+02 0.67584494625E+02 0.68220626569E+02 0.66613316755E+02 0.63409684251E+02
 0.59735374167E+02 0.56858955508E+02 0.62418569262E+02 0.62966537554E+02 0.64361607975E+02
 0.65952173108E+02 0.66927855104E+02 0.66611353166E+02 0.64685334580E+02 0.61278135059E+02
 0.56870490271E+02 0.51884435266E+02 0.46618221068E+02 0.41341643888E+02 0.36270550471E+02
 0.31558103767E+02 0.27298675164E+02 0.23537524229E+02 0.20281641907E+02 0.17509897164E+02
 0.15182382036E+02 0.13249093028E+02 0.11657515678E+02 0.10358330192E+02 0.93087586579E+01
 0.84737255223E+01 0.78255115222E+01 0.73427294930E+01 0.70093047920E+01 0.68138466539E+01
 0.67494662784E+01 0.68138466539E+01 0.70093047920E+01 0.73427294930E+01 0.78255115222E+01
 0.84737255223E+01 0.93087586579E+01 0.10358330192E+02 0.11657515678E+02 0.13249093028E+02
 0.15182382036E+02 0.17509897164E+02 0.20281641907E+02 0.23537524229E+02 0.27298675164E+02
 0.31558103767E+02 0.36270550471E+02 0.41341643888E+02 0.46618221068E+02 0.51884435266E+02
 0.56870490271E+02 0.61278135059E+02 0.64685334580E+02 0.66611353166E+02 0.66927855104E+02
 0.65952173108E+02 0.64361607975E+02 0.62966537554E+02 0.63093161614E+02 0.63286532207E+02
 0.63717177632E+02 0.63999789256E+02 0.63674304299E+02 0.62394835549E+02 0.60068492330E+02
 0.56870490271E+02 0.53010086309E+02 0.48694770050E+02 0.44150898471E+02 0.39587653657E+02
 0.35176098694E+02 0.31042117608E+02 0.27268258056E+02 0.23899467697E+02 0.20949688660E+02
 0.18408484889E+02 0.16247958949E+02 0.14429979401E+02 0.12913010442E+02 0.11657515678E+02
 0.10629255986E+02 0.98004812044E+01 0.91495869683E+01 0.86600561910E+01 0.83194291852E+01
 0.81187411890E+01 0.80524714062E+01 0.81187411890E+01 0.83194291852E+01 0.86600561910E+01
 0.91495869683E+01 0.98004812044E+01 0.10629255986E+02 0.11657515678E+02 0.12913010442E+02
 0.14429979401E+02 0.16247958949E+02 0.18408484889E+02 0.20949688660E+02 0.23899467697E+02
 0.27268258056E+02 0.31042117608E+02 0.35176098694E+02 0.39587653657E+02 0.44150898471E+02
 0.48694770050E+02 0.53010086309E+02 0.56870490271E+02 0.60068492330E+02 0.62394835549E+02
 0.63674304299E+02 0.63999789256E+02 0.63717177632E+02 0.63286532207E+02 0.59218291800E+02
 0.59225785330E+02 0.59169130521E+02 0.58849520351E+02 0.58045897446E+02 0.56624756565E+02
 0.54561478587E+02 0.51884435266E+02 0.48694770050E+02 0.45142211036E+02 0.41393048569E+02
 0.37604588728E+02 0.33909916961E+02 0.30411898223E+02 0.27182940431E+02 0.24267241671E+02
 0.21683907765E+02 0.19430886260E+02 0.17490106730E+02 0.15833646995E+02 0.14429979401E+02
 0.13249093028E+02 0.12265659641E+02 0.11460102888E+02 0.10818067162E+02 0.10329131644E+02
 0.99855985009E+01 0.97818560257E+01 0.97143525921E+01 0.97818560257E+01 0.99855985009E+01
 0.10329131644E+02 0.10818067162E+02 0.11460102888E+02 0.12265659641E+02 0.13249093028E+02
 0.14429979401E+02 0.15833646995E+02 0.17490106730E+02 0.19430886260E+02 0.21683907765E+02
 0.24267241671E+02 0.27182940431E+02 0.30411898223E+02 0.33909916961E+02 0.37604588728E+02
 0.41393048569E+02 0.45142211036E+02 0.48694770050E+02 0.51884435266E+02 0.54561478587E+02
 0.56624756565E+02 0.58045897446E+02 0.58849520351E+02 0.59169130521E+02 0.59225785330E+02
 0.52799334923E+02 0.52752489255E+02 0.52576741373E+02 0.52182632147E+02 0.51458849846E+02
 0.50311393389E+02 0.48693641511E+02 0.46618221068E+02 0.44150898471E+02 0.41393048569E+02
 0.38461142626E+02 0.35469680308E+02 0.32520228954E+02 0.29695939888E+02 0.27059422778E+02
 0.24652235865E+02 0.22495499418E+02 0.20592031624E+02 0.18930344800E+02 0.17490106730E+02
 0.16247958949E+02 0.15182382036E+02 0.14276662828E+02 0.13519710542E+02 0.12905170668E+02
 0.12429727365E+02 0.12091516818E+02 0.11889223982E+02 0.11821911848E+02 0.11889223982E+02
 0.12091516818E+02 0.12429727365E+02 0.12905170668E+02 0.13519710542E+02 0.14276662828E+02
 0.15182382036E+02 0.16247958949E+02 0.17490106730E+02 0.18930344800E+02 0.20592031624E+02
 0.22495499418E+02 0.24652235865E+02 0.27059422778E+02 0.29695939888E+02 0.32520228954E+02
 0.35469680308E+02 0.38461142626E+02 0.41393048569E+02 0.44150898471E+02 0.46618221068E+02
 0.48693641511E+02 0.50311393389E+02 0.51458849846E+02 0.52182632147E+02 0.52576741373E+02
 0.52752489255E+02 0.45703618392E+02 0.45667284711E+02 0.45536199751E+02 0.45252051344E+02
 0.44740723990E+02 0.43936864544E+02 0.42803579826E+02 0.41341643888E+02 0.39587653657E+02
 0.37604588728E+02 0.35469680308E+02 0.33263488161E+02 0.31061876003E+02 0.28930663330E+02
 0.26922022582E+02 0.25072110397E+02 0.23400183820E+02 0.21909764099E+02 0.20592031624E+02
 0.19430886260E+02 0.18408484889E+02 0.17509897164E+02 0.16725856064E+02 0.16053264707E+02
 0.15493871411E+02 0.15052034255E+02 0.14732570059E+02 0.14539338839E+02 0.14474674494E+02
 0.14539338839E+02 0.14732570059E+02 0.15052034255E+02 0.15493871411E+02 0.16053264707E+02
 0.16725856064E+02 0.17509897164E+02 0.18408484889E+02 0.19430886260E+02 0.20592031624E+02
 0.21909764099E+02 0.23400183820E+02 0.25072110397E+02 0.26922022582E+02 0.28930663330E+02
 0.31061876003E+02 0.33263488161E+02 0.35469680308E+02 0.37604588728E+02 0.39587653657E+02
 0.41341643888E+02 0.42803579826E+02 0.43936864544E+02 0.44740723990E+02 0.45252051344E+02
 0.45536199751E+02 0.45667284711E+02 0.38767410808E+02 0.38752631932E+02 0.38693962596E+02
 0.38552996096E+02 0.38279244092E+02 0.37825065294E+02 0.37158499631E+02 0.36270550471E+02
 0.35176098694E+02 0.33909916961E+02 0.32520228954E+02 0.31061876003E+02 0.29590111860E+02
 0.28155218103E+02 0.26797966180E+02 0.25546270711E+02 0.24413672737E+02 0.23400183820E+02
 0.22495499418E+02 0.21683907765E+02 0.20949688660E+02 0.20281641907E+02 0.19675689723E+02
 0.19135157412E+02 0.18669083498E+02 0.18289436667E+02 0.18008237468E+02 0.17835314795E+02
 0.17776958050E+02 0.17835314795E+02 0.18008237468E+02 0.18289436667E+02 0.18669083498E+02
 0.19135157412E+02 0.19675689723E+02 0.20281641907E+02 0.20949688660E+02 0.21683907765E+02
 0.22495499418E+02 0.23400183820E+02 0.24413672737E+02 0.25546270711E+02 0.26797966180E+02
 0.28155218103E+02 0.29590111860E+02 0.31061876003E+02 0.32520228954E+02 0.33909916961E+02
 0.35176098694E+02 0.36270550471E+02 0.37158499631E+02 0.37825065294E+02 0.38279244092E+02
 0.38552996096E+02 0.38693962596E+02 0.38752631932E+02 0.32356756990E+02 0.32366001061E+02
 0.32384332477E+02 0.32386063899E+02 0.32335943842E+02 0.32197962502E+02 0.31943685820E+02
 0.31558103767E+02 0.31042117608E+02 0.30411898223E+02 0.29695939888E+02 0.28930663330E+02
 0.28155218103E+02 0.27406056023E+02 0.26711976746E+02 0.26090490460E+02 0.25546270711E+02
 0.25072110397E+02 0.24652235865E+02 0.24267241671E+02 0.23899467697E+02 0.23537524229E+02
 0.23178953718E+02 0.22830595818E+02 0.22506855656E+02 0.22226540296E+02 0.22009124454E+02
 0.21871246257E+02 0.21823993709E+02 0.21871246257E+02 0.22009124454E+02 0.22226540296E+02
 0.22506855656E+02 0.22830595818E+02 0.23178953718E+02 0.23537524229E+02 0.23899467697E+02
 0.24267241671E+02 0.24652235865E+02 0.25072110397E+02 0.25546270711E+02 0.26090490460E+02
 0.26711976746E+02 0.27406056023E+02 0.28155218103E+02 0.28930663330E+02 0.29695939888E+02
 0.30411898223E+02 0.31042117608E+02 0.31558103767E+02 0.31943685820E+02 0.32197962502E+02
 0.32335943842E+02 0.32386063899E+02 0.32384332477E+02 0.32366001061E+02 0.26681260655E+02
 0.26711976746E+02 0.26797966180E+02 0.26922022582E+02 0.27059422778E+02 0.27182940431E+02
 0.27268258056E+02 0.27298675164E+02 0.27268258056E+02 0.27182940431E+02 0.27059422778E+02
 0.26922022582E+02 0.26797966180E+02 0.26711976746E+02 0.26681260655E+02 0.26711976746E+02
 0.26797966180E+02 0.26922022582E+02 0.27059422778E+02 0.27182940431E+02 0.27268258056E+02
 0.27298675164E+02 0.27268258056E+02 0.27182940431E+02 0.27059422778E+02 0.26922022582E+02
 0.26797966180E+02 0.26711976746E+02 0.26681260655E+02 0.26711976746E+02 0.26797966180E+02
 0.26922022582E+02 0.27059422778E+02 0.27182940431E+02 0.27268258056E+02 0.27298675164E+02
 0.27268258056E+02 0.27182940431E+02 0.27059422778E+02 0.26922022582E+02 0.26797966180E+02
 0.26711976746E+02 0.26681260655E+02 0.26711976746E+02 0.26797966180E+02 0.26922022582E+02
 0.27059422778E+02 0.27182940431E+02 0.27268258056E+02 0.27298675164E+02 0.27268258056E+02
 0.27182940431E+02 0.27059422778E+02 0.26922022582E+02 0.26797966180E+02 0.26711976746E+02
 0.21823993709E+02 0.21871246257E+02 0.22009124454E+02 0.22226540296E+02 0.22506855656E+02
 0.22830595818E+02 0.23178953718E+02 0.23537524229E+02 0.23899467697E+02 0.24267241671E+02
 0.24652235865E+02 0.25072110397E+02 0.25546270711E+02 0.26090490460E+02 0.26711976746E+02
 0.27406056023E+02 0.28155218103E+02 0.28930663330E+02 0.29695939888E+02 0.30411898223E+02
 0.31042117608E+02 0.31558103767E+02 0.31943685820E+02 0.32197962502E+02 0.32335943842E+02
 0.32386063899E+02 0.32384332477E+02 0.32366001061E+02 0.32356756990E+02 0.32366001061E+02
 0.32384332477E+02 0.32386063899E+02 0.32335943842E+02 0.32197962502E+02 0.31943685820E+02
 0.31558103767E+02 0.31042117608E+02 0.30411898223E+02 0.29695939888E+02 0.28930663330E+02
 0.28155218103E+02 0.27406056023E+02 0.26711976746E+02 0.26090490460E+02 0.25546270711E+02
 0.25072110397E+02 0.24652235865E+02 0.24267241671E+02 0.23899467697E+02 0.23537524229E+02
 0.23178953718E+02 0.22830595818E+02 0.22506855656E+02 0.22226540296E+02 0.22009124454E+02
 0.21871246257E+02 0.17776958050E+02 0.17835314795E+02 0.18008237468E+02 0.18289436667E+02
 0.18669083498E+02 0.19135157412E+02 0.19675689723E+02 0.20281641907E+02 0.20949688660E+02
 0.21683907765E+02 0.22495499418E+02 0.23400183820E+02 0.24413672737E+02 0.25546270711E+02
 0.26797966180E+02 0.28155218103E+02 0.29590111860E+02 0.31061876003E+02 0.32520228954E+02
 0.33909916961E+02 0.35176098694E+02 0.36270550471E+02 0.37158499631E+02 0.37825065294E+02
 0.38279244092E+02 0.38552996096E+02 0.38693962596E+02 0.38752631932E+02 0.38767410808E+02
 0.38752631932E+02 0.38693962596E+02 0.38552996096E+02 0.38279244092E+02 0.37825065294E+02
 0.37158499631E+02 0.36270550471E+02 0.35176098694E+02 0.33909916961E+02 0.32520228954E+02
 0.31061876003E+02 0.29590111860E+02 0.28155218103E+02 0.26797966180E+02 0.25546270711E+02
 0.24413672737E+02 0.23400183820E+02 0.22495499418E+02 0.21683907765E+02 0.20949688660E+02
 0.20281641907E+02 0.19675689723E+02 0.19135157412E+02 0.18669083498E+02 0.18289436667E+02
 0.18008237468E+02 0.17835314795E+02 0.14474674494E+02 0.14539338839E+02 0.14732570059E+02
 0.15052034255E+02 0.15493871411E+02 0.16053264707E+02 0.16725856064E+02 0.17509897164E+02
 0.18408484889E+02 0.19430886260E+02 0.20592031624E+02 0.21909764099E+02 0.23400183820E+02
 0.25072110397E+02 0.26922022582E+02 0.28930663330E+02 0.31061876003E+02 0.33263488161E+02
 0.35469680308E+02 0.37604588728E+02 0.39587653657E+02 0.41341643888E+02 0.42803579826E+02
 0.43936864544E+02 0.44740723990E+02 0.45252051344E+02 0.45536199751E+02 0.45667284711E+02
 0.45703618392E+02 0.45667284711E+02 0.45536199751E+02 0.45252051344E+02 0.44740723990E+02
 0.43936864544E+02 0.42803579826E+02 0.41341643888E+02 0.39587653657E+02 0.37604588728E+02
 0.35469680308E+02 0.33263488161E+02 0.31061876003E+02 0.28930663330E+02 0.26922022582E+02
 0.25072110397E+02 0.23400183820E+02 0.21909764099E+02 0.20592031624E+02 0.19430886260E+02
 0.18408484889E+02 0.17509897164E+02 0.16725856064E+02 0.16053264707E+02 0.15493871411E+02
 0.15052034255E+02 0.14732570059E+02 0.14539338839E+02 0.11821911848E+02 0.11889223982E+02
 0.12091516818E+02 0.12429727365E+02 0.12905170668E+02 0.13519710542E+02 0.14276662828E+02
 0.15182382036E+02 0.16247958949E+02 0.17490106730E+02 0.18930344800E+02 0.20592031624E+02
 0.22495499418E+02 0.24652235865E+02 0.27059422778E+02 0.29695939888E+02 0.32520228954E+02
 0.35469680308E+02 0.38461142626E+02 0.41393048569E+02 0.44150898471E+02 0.46618221068E+02
 0.48693641511E+02 0.50311393389E+02 0.51458849846E+02 0.52182632147E+02 0.52576741373E+02
 0.52752489255E+02 0.52799334923E+02 0.52752489255E+02 0.52576741373E+02 0.52182632147E+02
 0.51458849846E+02 0.50311393389E+02 0.48693641511E+02 0.46618221068E+02 0.44150898471E+02
 0.41393048569E+02 0.38461142626E+02 0.35469680308E+02 0.32520228954E+02 0.29695939888E+02
 0.27059422778E+02 0.24652235865E+02 0.22495499418E+02 0.20592031624E+02 0.18930344800E+02
 0.17490106730E+02 0.16247958949E+02 0.15182382036E+02 0.14276662828E+02 0.13519710542E+02
 0.12905170668E+02 0.12429727365E+02 0.12091516818E+02 0.11889223982E+02 0.97143525921E+01
 0.97818560257E+01 0.99855985009E+01 0.10329131644E+02 0.10818067162E+02 0.11460102888E+02
 0.12265659641E+02 0.13249093028E+02 0.14429979401E+02 0.15833646995E+02 0.17490106730E+02
 0.19430886260E+02 0.21683907765E+02 0.24267241671E+02 0.27182940431E+02 0.30411898223E+02
 0.33909916961E+02 0.37604588728E+02 0.41393048569E+02 0.45142211036E+02 0.48694770050E+02
 0.51884435266E+02 0.54561478587E+02 0.56624756565E+02 0.58045897446E+02 0.58849520351E+02
 0.59169130521E+02 0.59225785330E+02 0.59218291800E+02 0.59225785330E+02 0.59169130521E+02
 0.58849520351E+02 0.58045897446E+02 0.56624756565E+02 0.54561478587E+02 0.51884435266E+02
 0.48694770050E+02 0.45142211036E+02 0.41393048569E+02 0.37604588728E+02 0.33909916961E+02
 0.30411898223E+02 0.27182940431E+02 0.24267241671E+02 0.21683907765E+02 0.19430886260E+02
 0.17490106730E+02 0.15833646995E+02 0.14429979401E+02 0.13249093028E+02 0.12265659641E+02
 0.11460102888E+02 0.10818067162E+02 0.10329131644E+02 0.99855985009E+01 0.97818560257E+01
 0.80524714062E+01 0.81187411890E+01 0.83194291852E+01 0.86600561910E+01 0.91495869683E+01
 0.98004812044E+01 0.10629255986E+02 0.11657515678E+02 0.12913010442E+02 0.14429979401E+02
 0.16247958949E+02 0.18408484889E+02 0.20949688660E+02 0.23899467697E+02 0.27268258056E+02
 0.31042117608E+02 0.35176098694E+02 0.39587653657E+02 0.44150898471E+02 0.48694770050E+02
 0.53010086309E+02 0.56870490271E+02 0.60068492330E+02 0.62394835549E+02 0.63674304299E+02
 0.63999789256E+02 0.63717177632E+02 0.63286532207E+02 0.63093161614E+02 0.63286532207E+02
 0.63717177632E+02 0.63999789256E+02 0.63674304299E+02 0.62394835549E+02 0.60068492330E+02
 0.56870490271E+02 0.53010086309E+02 0.48694770050E+02 0.44150898471E+02 0.39587653657E+02
 0.35176098694E+02 0.31042117608E+02 0.27268258056E+02 0.23899467697E+02 0.20949688660E+02
 0.18408484889E+02 0.16247958949E+02 0.14429979401E+02 0.12913010442E+02 0.11657515678E+02
 0.10629255986E+02 0.98004812044E+01 0.91495869683E+01 0.86600561910E+01 0.83194291852E+01
 0.81187411890E+01 0.67494662784E+01 0.68138466539E+01 0.70093047920E+01 0.73427294930E+01
 0.78255115222E+01 0.84737255223E+01 0.93087586579E+01 0.10358330192E+02 0.11657515678E+02
 0.13249093028E+02 0.15182382036E+02 0.17509897164E+02 0.20281641907E+02 0.23537524229E+02
 0.27298675164E+02 0.31558103767E+02 0.36270550471E+02 0.41341643888E+02 0.46618221068E+02
 0.51884435266E+02 0.56870490271E+02 0.61278135059E+02 0.64685334580E+02 0.66611353166E+02
 0.66927855104E+02 0.65952173108E+02 0.64361607975E+02 0.62966537554E+02 0.62418569262E+02
 0.62966537554E+02 0.64361607975E+02 0.65952173108E+02 0.66927855104E+02 0.66611353166E+02
 0.64685334580E+02 0.61278135059E+02 0.56870490271E+02 0.51884435266E+02 0.46618221068E+02
 0.41341643888E+02 0.36270550471E+02 0.31558103767E+02 0.27298675164E+02 0.23537524229E+02
 0.20281641907E+02 0.17509897164E+02 0.15182382036E+02 0.13249093028E+02 0.11657515678E+02
 0.10358330192E+02 0.93087586579E+01 0.84737255223E+01 0.78255115222E+01 0.73427294930E+01
 0.70093047920E+01 0.68138466539E+01 0.57343808101E+01 0.57967229467E+01 0.59863312988E+01
 0.63109511825E+01 0.67835778659E+01 0.74228229027E+01 0.82536983982E+01 0.93087586579E+01
 0.10629255986E+02 0.12265659641E+02 0.14276662828E+02 0.16725856064E+02 0.19675689723E+02
 0.23178953718E+02 0.27268258056E+02 0.31943685820E+02 0.37158499631E+02 0.42803579826E+02
 0.48693641511E+02 0.54561478587E+02 0.60068492330E+02 0.64685334580E+02 0.67584494625E+02
 0.68220626569E+02 0.66613316755E+02 0.63409684251E+02 0.59735374167E+02 0.56858955508E+02
 0.55774846069E+02 0.56858955508E+02 0.59735374167E+02 0.63409684251E+02 0.66613316755E+02
 0.68220626569E+02 0.67584494625E+02 0.64685334580E+02 0.60068492330E+02 0.54561478587E+02
 0.48693641511E+02 0.42803579826E+02 0.37158499631E+02 0.31943685820E+02 0.27268258056E+02
 0.23178953718E+02 0.19675689723E+02 0.16725856064E+02 0.14276662828E+02 0.12265659641E+02
 0.10629255986E+02 0.93087586579E+01 0.82536983982E+01 0.74228229027E+01 0.67835778659E+01
 0.63109511825E+01 0.59863312988E+01 0.57967229467E+01 0.49518586897E+01 0.50123058488E+01
 0.51963660875E+01 0.55122538396E+01 0.59739179261E+01 0.66016013700E+01 0.74228229027E+01
 0.84737255223E+01 0.98004812044E+01 0.11460102888E+02 0.13519710542E+02 0.16053264707E+02
 0.19135157412E+02 0.22830595818E+02 0.27182940431E+02 0.32197962502E+02 0.37825065294E+02
 0.43936864544E+02 0.50311393389E+02 0.56624756565E+02 0.62394835549E+02 0.66611353166E+02
 0.68220626569E+02 0.66683989382E+02 0.62241205462E+02 0.55958023194E+02 0.49502759775E+02
 0.44686911133E+02 0.42906874918E+02 0.44686911133E+02 0.49502759775E+02 0.55958023194E+02
 0.62241205462E+02 0.66683989382E+02 0.68220626569E+02 0.66611353166E+02 0.62394835549E+02
 0.56624756565E+02 0.50311393389E+02 0.43936864544E+02 0.37825065294E+02 0.32197962502E+02
 0.27182940431E+02 0.22830595818E+02 0.19135157412E+02 0.16053264707E+02 0.13519710542E+02
 0.11460102888E+02 0.98004812044E+01 0.84737255223E+01 0.74228229027E+01 0.66016013700E+01
 0.59739179261E+01 0.55122538396E+01 0.51963660875E+01 0.50123058488E+01 0.43600937858E+01
 0.44189321743E+01 0.45982225058E+01 0.49063948322E+01 0.53578960100E+01 0.59739179261E+01
 0.67835778659E+01 0.78255115222E+01 0.91495869683E+01 0.10818067162E+02 0.12905170668E+02
 0.15493871411E+02 0.18669083498E+02 0.22506855656E+02 0.27059422778E+02 0.32335943842E+02
 0.38279244092E+02 0.44740723990E+02 0.51458849846E+02 0.58045897446E+02 0.63674304299E+02
 0.66927855104E+02 0.66613316755E+02 0.62241205462E+02 0.54320648949E+02 0.44387662949E+02
 0.34702212718E+02 0.27659340990E+02 0.25084366520E+02 0.27659340990E+02 0.34702212718E+02
 0.44387662949E+02 0.54320648949E+02 0.62241205462E+02 0.66613316755E+02 0.66927855104E+02
 0.63674304299E+02 0.58045897446E+02 0.51458849846E+02 0.44740723990E+02 0.38279244092E+02
 0.32335943842E+02 0.27059422778E+02 0.22506855656E+02 0.18669083498E+02 0.15493871411E+02
 0.12905170668E+02 0.10818067162E+02 0.91495869683E+01 0.78255115222E+01 0.67835778659E+01
 0.59739179261E+01 0.53578960100E+01 0.49063948322E+01 0.45982225058E+01 0.44189321743E+01
 0.39282946345E+01 0.39858671134E+01 0.41613758865E+01 0.44633290300E+01 0.49063948322E+01
 0.55122538396E+01 0.63109511825E+01 0.73427294930E+01 0.86600561910E+01 0.10329131644E+02
 0.12429727365E+02 0.15052034255E+02 0.18289436667E+02 0.22226540296E+02 0.26922022582E+02
 0.32386063899E+02 0.38552996096E+02 0.45252051344E+02 0.52182632147E+02 0.58849520351E+02
 0.63999789256E+02 0.65952173108E+02 0.63409684251E+02 0.55958023194E+02 0.44387662949E+02
 0.30701536462E+02 0.17735611994E+02 0.84474706859E+01 0.50737512337E+01 0.84474706859E+01
 0.17735611994E+02 0.30701536462E+02 0.44387662949E+02 0.55958023194E+02 0.63409684251E+02
 0.65952173108E+02 0.63999789256E+02 0.58849520351E+02 0.52182632147E+02 0.45252051344E+02
 0.38552996096E+02 0.32386063899E+02 0.26922022582E+02 0.22226540296E+02 0.18289436667E+02
 0.15052034255E+02 0.12429727365E+02 0.10329131644E+02 0.86600561910E+01 0.73427294930E+01
 0.63109511825E+01 0.55122538396E+01 0.49063948322E+01 0.44633290300E+01 0.41613758865E+01
 0.39858671134E+01 0.36344725308E+01 0.36911386962E+01 0.38639305197E+01 0.41613758865E+01
 0.45982225058E+01 0.51963660875E+01 0.59863312988E+01 0.70093047920E+01 0.83194291852E+01
 0.99855985009E+01 0.12091516818E+02 0.14732570059E+02 0.18008237468E+02 0.22009124454E+02
 0.26797966180E+02 0.32384332477E+02 0.38693962596E+02 0.45536199751E+02 0.52576741373E+02
 0.59169130521E+02 0.63717177632E+02 0.64361607975E+02 0.59735374167E+02 0.49502759775E+02
 0.34702212718E+02 0.17735611994E+02 0.19247635512E+01 -.93014763149E+01 -.13363158862E+02
 -.93014763149E+01 0.19247635512E+01 0.17735611994E+02 0.34702212718E+02 0.49502759775E+02
 0.59735374167E+02 0.64361607975E+02 0.63717177632E+02 0.59169130521E+02 0.52576741373E+02
 0.45536199751E+02 0.38693962596E+02 0.32384332477E+02 0.26797966180E+02 0.22009124454E+02
 0.18008237468E+02 0.14732570059E+02 0.12091516818E+02 0.99855985009E+01 0.83194291852E+01
 0.70093047920E+01 0.59863312988E+01 0.51963660875E+01 0.45982225058E+01 0.41613758865E+01
 0.38639305197E+01 0.36911386962E+01 0.34638561016E+01 0.35199785269E+01 0.36911386962E+01
 0.39858671134E+01 0.44189321743E+01 0.50123058488E+01 0.57967229467E+01 0.68138466539E+01
 0.81187411890E+01 0.97818560257E+01 0.11889223982E+02 0.14539338839E+02 0.17835314795E+02
 0.21871246257E+02 0.26711976746E+02 0.32366001061E+02 0.38752631932E+02 0.45667284711E+02
 0.52752489255E+02 0.59225785330E+02 0.63286532207E+02 0.62966537554E+02 0.56858955508E+02
 0.44686911133E+02 0.27659340990E+02 0.84474706859E+01 -.93014763149E+01 -.21844338772E+02
 -.26372761098E+02 -.21844338772E+02 -.93014763149E+01 0.84474706859E+01 0.27659340990E+02
 0.44686911133E+02 0.56858955508E+02 0.62966537554E+02 0.63286532207E+02 0.59225785330E+02
 0.52752489255E+02 0.45667284711E+02 0.38752631932E+02 0.32366001061E+02 0.26711976746E+02
 0.21871246257E+02 0.17835314795E+02 0.14539338839E+02 0.11889223982E+02 0.97818560257E+01
 0.81187411890E+01 0.68138466539E+01 0.57967229467E+01 0.50123058488E+01 0.44189321743E+01
 0.39858671134E+01 0.36911386962E+01 0.35199785269E+01 0.34079148757E+01 0.34638561016E+01
 0.36344725308E+01 0.39282946345E+01 0.43600937858E+01 0.49518586897E+01 0.57343808101E+01
 0.67494662784E+01 0.80524714062E+01 0.97143525921E+01 0.11821911848E+02 0.14474674494E+02
 0.17776958050E+02 0.21823993709E+02 0.26681260655E+02 0.32356756990E+02 0.38767410808E+02
 0.45703618392E+02 0.52799334923E+02 0.59218291800E+02 0.63093161614E+02 0.62418569262E+02
 0.55774846069E+02 0.42906874918E+02 0.25084366520E+02 0.50737512337E+01 -.13363158862E+02
 -.26372761098E+02 -.31066537769E+02 -.26372761098E+02 -.13363158862E+02 0.50737512337E+01
 0.25084366520E+02 0.42906874918E+02 0.55774846069E+02 0.62418569262E+02 0.63093161614E+02
 0.59218291800E+02 0.52799334923E+02 0.45703618392E+02 0.38767410808E+02 0.32356756990E+02
 0.26681260655E+02 0.21823993709E+02 0.17776958050E+02 0.14474674494E+02 0.11821911848E+02
 0.97143525921E+01 0.80524714062E+01 0.67494662784E+01 0.57343808101E+01 0.49518586897E+01