   8   8   0   0
  0.2002393E+02  0.5431000E-09  0.5431000E-09  0.5431000E-09  0.1000000E-14
  1.000000000000000E-004
  CAR 
 diamond Si                              
     11.64359308     -6.99144069  301      5.80558641      1.00000000
     -6.991  0.0000E+00  0.0000E+00
     -6.929  0.0000E+00  0.0000E+00
     -6.867  0.0000E+00  0.0000E+00
     -6.805  0.0000E+00  0.0000E+00
     -6.743  0.0000E+00  0.0000E+00
     -6.681  0.0000E+00  0.0000E+00
     -6.619  0.0000E+00  0.0000E+00
     -6.557  0.2979E-15  0.1850E-16
     -6.495  0.2510E-12  0.1561E-13
     -6.432  0.1001E-09  0.6236E-11
     -6.370  0.1877E-07  0.1172E-08
     -6.308  0.1658E-05  0.1041E-06
     -6.246  0.6932E-04  0.4410E-05
     -6.184  0.1379E-02  0.9009E-04
     -6.122  0.1314E-01  0.9060E-03
     -6.060  0.6020E-01  0.4645E-02
     -5.998  0.1334E+00  0.1293E-01
     -5.935  0.1432E+00  0.2183E-01
     -5.873  0.7460E-01  0.2646E-01
     -5.811  0.1880E-01  0.2763E-01
     -5.749  0.2315E-02  0.2777E-01
     -5.687  0.1123E-02  0.2784E-01
     -5.625  0.1372E-01  0.2869E-01
     -5.563  0.9114E-01  0.3435E-01
     -5.501  0.2922E+00  0.5250E-01
     -5.439  0.4536E+00  0.8068E-01
     -5.376  0.3415E+00  0.1019E+00
     -5.314  0.1246E+00  0.1096E+00
     -5.252  0.2197E-01  0.1110E+00
     -5.190  0.2732E-02  0.1112E+00
     -5.128  0.1257E-01  0.1119E+00
     -5.066  0.8554E-01  0.1173E+00
     -5.004  0.2825E+00  0.1348E+00
     -4.942  0.4518E+00  0.1629E+00
     -4.879  0.3505E+00  0.1846E+00
     -4.817  0.1317E+00  0.1928E+00
     -4.755  0.2422E-01  0.1943E+00
     -4.693  0.6548E-02  0.1947E+00
     -4.631  0.3223E-01  0.1967E+00
     -4.569  0.1256E+00  0.2045E+00
     -4.507  0.3033E+00  0.2234E+00
     -4.445  0.4894E+00  0.2538E+00
     -4.383  0.4873E+00  0.2840E+00
     -4.320  0.2639E+00  0.3004E+00
     -4.258  0.7285E-01  0.3050E+00
     -4.196  0.2212E-01  0.3063E+00
     -4.134  0.1063E+00  0.3129E+00
     -4.072  0.4311E+00  0.3397E+00
     -4.010  0.8547E+00  0.3928E+00
     -3.948  0.8575E+00  0.4461E+00
     -3.886  0.5722E+00  0.4816E+00
     -3.823  0.4960E+00  0.5124E+00
     -3.761  0.4295E+00  0.5391E+00
     -3.699  0.2087E+00  0.5521E+00
     -3.637  0.4992E-01  0.5552E+00
     -3.575  0.6026E-02  0.5556E+00
     -3.513  0.5379E-02  0.5559E+00
     -3.451  0.4554E-01  0.5587E+00
     -3.389  0.1972E+00  0.5710E+00
     -3.327  0.4129E+00  0.5966E+00
     -3.264  0.4192E+00  0.6226E+00
     -3.202  0.2067E+00  0.6355E+00
     -3.140  0.5493E-01  0.6389E+00
     -3.078  0.5576E-01  0.6424E+00
     -3.016  0.2106E+00  0.6554E+00
     -2.954  0.4440E+00  0.6830E+00
     -2.892  0.5742E+00  0.7187E+00
     -2.830  0.7454E+00  0.7650E+00
     -2.767  0.9450E+00  0.8237E+00
     -2.705  0.7191E+00  0.8684E+00
     -2.643  0.2748E+00  0.8854E+00
     -2.581  0.5098E-01  0.8886E+00
     -2.519  0.4549E-02  0.8889E+00
     -2.457  0.1940E-03  0.8889E+00
     -2.395  0.3934E-05  0.8889E+00
     -2.333  0.3772E-07  0.8889E+00
     -2.271  0.1703E-09  0.8889E+00
     -2.208  0.3607E-12  0.8889E+00
     -2.146  0.2979E-15  0.8889E+00
     -2.084  0.0000E+00  0.8889E+00
     -2.022  0.0000E+00  0.8889E+00
     -1.960  0.0000E+00  0.8889E+00
     -1.898  0.0000E+00  0.8889E+00
     -1.836  0.1489E-15  0.8889E+00
     -1.774  0.9026E-13  0.8889E+00
     -1.712  0.4994E-10  0.8889E+00
     -1.649  0.1296E-07  0.8889E+00
     -1.587  0.1582E-05  0.8889E+00
     -1.525  0.9128E-04  0.8889E+00
     -1.463  0.2503E-02  0.8891E+00
     -1.401  0.3286E-01  0.8911E+00
     -1.339  0.2091E+00  0.9041E+00
     -1.277  0.6602E+00  0.9451E+00
     -1.215  0.1096E+01  0.1013E+01
     -1.152  0.1098E+01  0.1081E+01
     -1.090  0.8820E+00  0.1136E+01
     -1.028  0.8072E+00  0.1186E+01
     -0.966  0.8166E+00  0.1237E+01
     -0.904  0.6576E+00  0.1278E+01
     -0.842  0.3357E+00  0.1299E+01
     -0.780  0.9476E-01  0.1305E+01
     -0.718  0.1366E-01  0.1305E+01
     -0.656  0.9661E-03  0.1306E+01
     -0.593  0.3300E-04  0.1306E+01
     -0.531  0.8819E-05  0.1306E+01
     -0.469  0.2642E-03  0.1306E+01
     -0.407  0.4204E-02  0.1306E+01
     -0.345  0.3557E-01  0.1308E+01
     -0.283  0.1749E+00  0.1319E+01
     -0.221  0.5263E+00  0.1352E+01
     -0.159  0.9327E+00  0.1410E+01
     -0.096  0.8967E+00  0.1465E+01
     -0.034  0.4399E+00  0.1493E+01
      0.028  0.1066E+00  0.1499E+01
      0.090  0.1253E-01  0.1500E+01
      0.152  0.7081E-03  0.1500E+01
      0.214  0.1908E-04  0.1500E+01
      0.276  0.2438E-06  0.1500E+01
      0.338  0.4232E-07  0.1500E+01
      0.400  0.3791E-05  0.1500E+01
      0.463  0.1665E-03  0.1500E+01
      0.525  0.3478E-02  0.1500E+01
      0.587  0.3476E-01  0.1502E+01
      0.649  0.1671E+00  0.1513E+01
      0.711  0.3883E+00  0.1537E+01
      0.773  0.4373E+00  0.1564E+01
      0.835  0.2401E+00  0.1579E+01
      0.897  0.7995E-01  0.1584E+01
      0.960  0.1126E+00  0.1591E+01
      1.022  0.3140E+00  0.1610E+01
      1.084  0.4554E+00  0.1639E+01
      1.146  0.3209E+00  0.1659E+01
      1.208  0.1095E+00  0.1665E+01
      1.270  0.1804E-01  0.1667E+01
      1.332  0.1431E-02  0.1667E+01
      1.394  0.2567E-03  0.1667E+01
      1.456  0.4785E-02  0.1667E+01
      1.519  0.5461E-01  0.1670E+01
      1.581  0.3066E+00  0.1689E+01
      1.643  0.8663E+00  0.1743E+01
      1.705  0.1269E+01  0.1822E+01
      1.767  0.9923E+00  0.1884E+01
      1.829  0.4218E+00  0.1910E+01
      1.891  0.9681E-01  0.1916E+01
      1.953  0.1167E-01  0.1917E+01
      2.015  0.8850E-03  0.1917E+01
      2.078  0.3611E-02  0.1917E+01
      2.140  0.3638E-01  0.1919E+01
      2.202  0.1859E+00  0.1931E+01
      2.264  0.5283E+00  0.1964E+01
      2.326  0.9934E+00  0.2025E+01
      2.388  0.1377E+01  0.2111E+01
      2.450  0.1283E+01  0.2190E+01
      2.512  0.7072E+00  0.2234E+01
      2.575  0.2379E+00  0.2249E+01
      2.637  0.1970E+00  0.2261E+01
      2.699  0.5520E+00  0.2296E+01
      2.761  0.9006E+00  0.2352E+01
      2.823  0.7250E+00  0.2397E+01
      2.885  0.3624E+00  0.2419E+01
      2.947  0.4313E+00  0.2446E+01
      3.009  0.8154E+00  0.2497E+01
      3.071  0.8451E+00  0.2549E+01
      3.134  0.4308E+00  0.2576E+01
      3.196  0.1187E+00  0.2583E+01
      3.258  0.1142E+00  0.2590E+01
      3.320  0.4293E+00  0.2617E+01
      3.382  0.9379E+00  0.2675E+01
      3.444  0.1144E+01  0.2746E+01
      3.506  0.8582E+00  0.2800E+01
      3.568  0.4236E+00  0.2826E+01
      3.631  0.2416E+00  0.2841E+01
      3.693  0.5608E+00  0.2876E+01
      3.755  0.1167E+01  0.2948E+01
      3.817  0.1260E+01  0.3027E+01
      3.879  0.6953E+00  0.3070E+01
      3.941  0.2279E+00  0.3084E+01
      4.003  0.1946E+00  0.3096E+01
      4.065  0.4292E+00  0.3123E+01
      4.127  0.5789E+00  0.3159E+01
      4.190  0.4205E+00  0.3185E+01
      4.252  0.2497E+00  0.3200E+01
      4.314  0.4059E+00  0.3225E+01
      4.376  0.7400E+00  0.3271E+01
      4.438  0.8135E+00  0.3322E+01
      4.500  0.5856E+00  0.3358E+01
      4.562  0.4131E+00  0.3384E+01
      4.624  0.3174E+00  0.3404E+01
      4.687  0.1648E+00  0.3414E+01
      4.749  0.7981E-01  0.3419E+01
      4.811  0.1816E+00  0.3430E+01
      4.873  0.3968E+00  0.3455E+01
      4.935  0.4322E+00  0.3482E+01
      4.997  0.2285E+00  0.3496E+01
      5.059  0.5846E-01  0.3500E+01
      5.121  0.7474E-02  0.3500E+01
      5.183  0.5049E-02  0.3500E+01
      5.246  0.3795E-01  0.3503E+01
      5.308  0.1500E+00  0.3512E+01
      5.370  0.2869E+00  0.3530E+01
      5.432  0.2661E+00  0.3546E+01
      5.494  0.1196E+00  0.3554E+01
      5.556  0.2601E-01  0.3555E+01
      5.618  0.2721E-02  0.3556E+01
      5.680  0.1362E-03  0.3556E+01
      5.742  0.3244E-05  0.3556E+01
      5.805  0.3658E-07  0.3556E+01
      5.867  0.1944E-09  0.3556E+01
      5.929  0.4852E-12  0.3556E+01
      5.991  0.5958E-15  0.3556E+01
      6.053  0.4230E-13  0.3556E+01
      6.115  0.2356E-10  0.3556E+01
      6.177  0.6158E-08  0.3556E+01
      6.239  0.7573E-06  0.3556E+01
      6.302  0.4400E-04  0.3556E+01
      6.364  0.1214E-02  0.3556E+01
      6.426  0.1598E-01  0.3557E+01
      6.488  0.1010E+00  0.3563E+01
      6.550  0.3081E+00  0.3582E+01
      6.612  0.4552E+00  0.3610E+01
      6.674  0.3262E+00  0.3631E+01
      6.736  0.1133E+00  0.3638E+01
      6.798  0.1994E-01  0.3639E+01
      6.861  0.1503E-01  0.3640E+01
      6.923  0.9025E-01  0.3645E+01
      6.985  0.2906E+00  0.3663E+01
      7.047  0.4541E+00  0.3692E+01
      7.109  0.3521E+00  0.3714E+01
      7.171  0.1737E+00  0.3724E+01
      7.233  0.1438E+00  0.3733E+01
      7.295  0.1527E+00  0.3743E+01
      7.358  0.1079E+00  0.3749E+01
      7.420  0.1393E+00  0.3758E+01
      7.482  0.3439E+00  0.3779E+01
      7.544  0.5529E+00  0.3814E+01
      7.606  0.6170E+00  0.3852E+01
      7.668  0.6163E+00  0.3890E+01
      7.730  0.6470E+00  0.3931E+01
      7.792  0.8506E+00  0.3983E+01
      7.854  0.9098E+00  0.4040E+01
      7.917  0.5963E+00  0.4077E+01
      7.979  0.4984E+00  0.4108E+01
      8.041  0.8658E+00  0.4162E+01
      8.103  0.1027E+01  0.4226E+01
      8.165  0.6435E+00  0.4265E+01
      8.227  0.3173E+00  0.4285E+01
      8.289  0.3755E+00  0.4309E+01
      8.351  0.4769E+00  0.4338E+01
      8.414  0.4565E+00  0.4366E+01
      8.476  0.7418E+00  0.4413E+01
      8.538  0.1324E+01  0.4495E+01
      8.600  0.1425E+01  0.4583E+01
      8.662  0.8999E+00  0.4639E+01
      8.724  0.3488E+00  0.4661E+01
      8.786  0.8161E-01  0.4666E+01
      8.848  0.1077E-01  0.4667E+01
      8.910  0.2935E-02  0.4667E+01
      8.973  0.2831E-01  0.4669E+01
      9.035  0.1893E+00  0.4680E+01
      9.097  0.6882E+00  0.4723E+01
      9.159  0.1419E+01  0.4811E+01
      9.221  0.1786E+01  0.4922E+01
      9.283  0.1597E+01  0.5021E+01
      9.345  0.1153E+01  0.5093E+01
      9.407  0.6765E+00  0.5135E+01
      9.470  0.4837E+00  0.5165E+01
      9.532  0.4800E+00  0.5195E+01
      9.594  0.3161E+00  0.5215E+01
      9.656  0.1052E+00  0.5221E+01
      9.718  0.1984E-01  0.5222E+01
      9.780  0.3779E-01  0.5225E+01
      9.842  0.2210E+00  0.5238E+01
      9.904  0.6496E+00  0.5279E+01
      9.966  0.9595E+00  0.5338E+01
     10.029  0.8301E+00  0.5390E+01
     10.091  0.6261E+00  0.5429E+01
     10.153  0.4468E+00  0.5457E+01
     10.215  0.2007E+00  0.5469E+01
     10.277  0.4599E-01  0.5472E+01
     10.339  0.5132E-02  0.5472E+01
     10.401  0.6714E-03  0.5472E+01
     10.463  0.6851E-02  0.5473E+01
     10.525  0.5639E-01  0.5476E+01
     10.588  0.2238E+00  0.5490E+01
     10.650  0.4297E+00  0.5517E+01
     10.712  0.4001E+00  0.5542E+01
     10.774  0.1806E+00  0.5553E+01
     10.836  0.3941E-01  0.5555E+01
     10.898  0.4138E-02  0.5556E+01
     10.960  0.2080E-03  0.5556E+01
     11.022  0.4973E-05  0.5556E+01
     11.085  0.5630E-07  0.5556E+01
     11.147  0.3004E-09  0.5556E+01
     11.209  0.7529E-12  0.5556E+01
     11.271  0.8937E-15  0.5556E+01
     11.333  0.0000E+00  0.5556E+01
     11.395  0.0000E+00  0.5556E+01
     11.457  0.0000E+00  0.5556E+01
     11.519  0.0000E+00  0.5556E+01
     11.581  0.0000E+00  0.5556E+01
     11.644  0.0000E+00  0.5556E+01
