The current hostname is p0131.ten.osc.edu
The current working directory is /users/PAA0028/sjtuwjx1994
Switching to the working directory /users/PAA0028/sjtuwjx1994/repos/vasp_tutorials/lessons/lesson_02/kpoint_convergence/4
switching compiler chain
module load intel/19.0.5
module load intelmpi/2019.3
VASP_STD_BIN=/users/PAA0028/sjtuwjx1994/usr/local/vasp/vasp.5.4.1/bin/vasp_std
 running on   40 total cores
 distrk:  each k-point on   40 cores,    1 groups
 distr:  one band on    8 cores,    5 groups
 using from now: INCAR     
 vasp.5.4.1 05Feb16 (build Feb 24 2020 14:33:01) complex                        
  
 POSCAR found type information on POSCAR  Si
 POSCAR found :  1 types and       8 ions
 scaLAPACK will be used
 LDA part: xc-table for Pade appr. of Perdew
 POSCAR, INCAR and KPOINTS ok, starting setup
 FFT: planning ...
 WAVECAR not read
 entering main loop
       N       E                     dE             d eps       ncg     rms          rms(c)
DAV:   1     0.346903322925E+02    0.34690E+02   -0.79322E+03   200   0.562E+02
DAV:   2    -0.412457644945E+02   -0.75936E+02   -0.73486E+02   260   0.113E+02
DAV:   3    -0.439624214616E+02   -0.27167E+01   -0.27033E+01   265   0.211E+01    0.112E+01
DAV:   4    -0.434924595623E+02    0.46996E+00   -0.43009E-01   270   0.310E+00    0.664E+00
DAV:   5    -0.432628018687E+02    0.22966E+00   -0.49048E-01   225   0.281E+00    0.385E-01
DAV:   6    -0.432674644966E+02   -0.46626E-02   -0.19754E-02   255   0.629E-01    0.206E-01
DAV:   7    -0.432691209721E+02   -0.16565E-02   -0.30832E-03   230   0.236E-01    0.116E-01
DAV:   8    -0.432692294222E+02   -0.10845E-03   -0.16163E-04   200   0.638E-02    0.638E-02
DAV:   9    -0.432692822302E+02   -0.52808E-04   -0.71065E-05   180   0.431E-02
   1 F= -.43269282E+02 E0= -.43269282E+02  d E =-.432693E+02
 curvature:   0.00 expect dE= 0.000E+00 dE for cont linesearch  0.000E+00
 trial: gam= 0.00000 g(F)=  0.265E-59 g(S)=  0.109E+00 ort = 0.000E+00 (trialstep = 0.100E+01)
 search vector abs. value=  0.109E+00
 bond charge predicted
       N       E                     dE             d eps       ncg     rms          rms(c)
DAV:   1    -0.432823086290E+02   -0.13079E-01   -0.26179E+00   235   0.639E+00
DAV:   2    -0.432881853950E+02   -0.58768E-02   -0.58767E-02   235   0.102E+00
DAV:   3    -0.432882325215E+02   -0.47126E-04   -0.47126E-04   240   0.111E-01    0.184E+00
DAV:   4    -0.432305360181E+02    0.57697E-01   -0.27564E-02   200   0.593E-01    0.910E-01
DAV:   5    -0.432021303432E+02    0.28406E-01   -0.41762E-02   220   0.739E-01    0.304E-01
DAV:   6    -0.432019245302E+02    0.20581E-03   -0.20954E-03   215   0.205E-01    0.135E-01
DAV:   7    -0.432018640265E+02    0.60504E-04   -0.23857E-04   215   0.555E-02
   2 F= -.43201864E+02 E0= -.43201864E+02  d E =0.674182E-01
 trial-energy change:    0.067418  1 .order    0.063818   -0.108885    0.236521
 step:   0.3021(harm=  0.3152)  dis= 0.00000  next Energy=   -43.285627 (dE=-0.163E-01)
 bond charge predicted
       N       E                     dE             d eps       ncg     rms          rms(c)
DAV:   1    -0.433241988206E+02   -0.12227E+00   -0.13160E+00   230   0.463E+00
DAV:   2    -0.433277617246E+02   -0.35629E-02   -0.35629E-02   235   0.751E-01
DAV:   3    -0.433277828793E+02   -0.21155E-04   -0.21155E-04   225   0.753E-02    0.130E+00
DAV:   4    -0.432991618330E+02    0.28621E-01   -0.13582E-02   200   0.424E-01    0.634E-01
DAV:   5    -0.432853133940E+02    0.13848E-01   -0.20138E-02   215   0.520E-01    0.231E-01
DAV:   6    -0.432853019821E+02    0.11412E-04   -0.10222E-03   220   0.147E-01    0.103E-01
DAV:   7    -0.432852385795E+02    0.63403E-04   -0.90249E-05   130   0.358E-02
   3 F= -.43285239E+02 E0= -.43285239E+02  d E =-.159563E-01
 curvature:  -0.16 expect dE=-0.255E-05 dE for cont linesearch -0.255E-05
 trial: gam= 0.00000 g(F)=  0.300E-59 g(S)=  0.162E-04 ort =-0.133E-02 (trialstep = 0.860E+00)
 search vector abs. value=  0.162E-04
 reached required accuracy - stopping structural energy minimisation
 writing wavefunctions

-----------------------
Resources requested:
nodes=1:ppn=40
mem=190440mb
-----------------------
Resources used:
cput=00:01:39
walltime=00:00:04
mem=0.060GB
vmem=4.067GB
-----------------------
Resource units charged (estimate):
0.004 RUs
-----------------------
