 vasp.5.4.1 05Feb16 (build Feb 24 2020 14:33:01) complex                        
  
 executed on           IFC91_ompi date 2020.02.27  21:42:35
 running on   40 total cores
 distrk:  each k-point on   40 cores,    1 groups
 distr:  one band on NCORES_PER_BAND=   8 cores,    5 groups


--------------------------------------------------------------------------------------------------------


 INCAR:
 POTCAR:    PAW_PBE Si 05Jan2001                  
 POTCAR:    PAW_PBE Si 05Jan2001                  
   VRHFIN =Si: s2p2                                                             
   LEXCH  = PE                                                                  
   EATOM  =   103.0669 eV,    7.5752 Ry                                         
                                                                                
   TITEL  = PAW_PBE Si 05Jan2001                                                
   LULTRA =        F    use ultrasoft PP ?                                      
   IUNSCR =        1    unscreen: 0-lin 1-nonlin 2-no                           
   RPACOR =    1.500    partial core radius                                     
   POMASS =   28.085; ZVAL   =    4.000    mass and valenz                      
   RCORE  =    1.900    outmost cutoff radius                                   
   RWIGS  =    2.480; RWIGS  =    1.312    wigner-seitz radius (au A)           
   ENMAX  =  245.345; ENMIN  =  184.009 eV                                      
   ICORE  =        2    local potential                                         
   LCOR   =        T    correct aug charges                                     
   LPAW   =        T    paw PP                                                  
   EAUG   =  322.069                                                            
   DEXC   =    0.000                                                            
   RMAX   =    1.950    core radius for proj-oper                               
   RAUG   =    1.300    factor for augmentation sphere                          
   RDEP   =    1.993    radius for radial grids                                 
   RDEPT  =    1.837    core radius for aug-charge                              
                                                                                
   Atomic configuration                                                         
    6 entries                                                                   
     n  l   j            E        occ.                                          
     1  0  0.50     -1785.8828   2.0000                                         
     2  0  0.50      -139.4969   2.0000                                         
     2  1  1.50       -95.5546   6.0000                                         
     3  0  0.50       -10.8127   2.0000                                         
     3  1  0.50        -4.0811   2.0000                                         
     3  2  1.50        -4.0817   0.0000                                         
   Description                                                                  
     l       E           TYP  RCUT    TYP  RCUT                                 
     0    -10.8127223     23  1.900                                             
     0     -7.6451159     23  1.900                                             
     1     -4.0811372     23  1.900                                             
     1      2.4879257     23  1.900                                             
     2     -4.0817478      7  1.900                                             
  local pseudopotential read in
  partial core-charges read in
  partial kinetic energy density read in
  atomic valenz-charges read in
  non local Contribution for L=           0  read in
    real space projection operators read in
  non local Contribution for L=           0  read in
    real space projection operators read in
  non local Contribution for L=           1  read in
    real space projection operators read in
  non local Contribution for L=           1  read in
    real space projection operators read in
    PAW grid and wavefunctions read in
 
   number of l-projection  operators is LMAX  =           4
   number of lm-projection operators is LMMAX =           8
 
  PAW_PBE Si 05Jan2001                  :
 energy of atom  1       EATOM= -103.0669
 kinetic energy error for atom=    0.0061 (will be added to EATOM!!)
 
 
 POSCAR: Si dia                                  
  positions in direct lattice
  No initial velocities read in
 exchange correlation table for  LEXCH =        8
   RHO(1)=    0.500       N(1)  =     2000
   RHO(2)=  100.500       N(2)  =     4000
 


--------------------------------------------------------------------------------------------------------


 ion  position               nearest neighbor table
   1  0.000  0.000  0.000-   5 2.35   6 2.35   7 2.35   8 2.35
   2  0.000  0.500  0.500-   5 2.35   6 2.35   7 2.35   8 2.35
   3  0.500  0.000  0.500-   5 2.35   6 2.35   7 2.35   8 2.35
   4  0.500  0.500  0.000-   5 2.35   6 2.35   7 2.35   8 2.35
   5  0.250  0.250  0.250-   1 2.35   2 2.35   3 2.35   4 2.35
   6  0.750  0.750  0.250-   1 2.35   2 2.35   3 2.35   4 2.35
   7  0.750  0.250  0.750-   1 2.35   2 2.35   3 2.35   4 2.35
   8  0.250  0.750  0.750-   1 2.35   2 2.35   3 2.35   4 2.35
 
  LATTYP: Found a simple cubic cell.
 ALAT       =     5.4310000000
  
  Lattice vectors:
  
 A1 = (   5.4310000000,   0.0000000000,   0.0000000000)
 A2 = (   0.0000000000,   5.4310000000,   0.0000000000)
 A3 = (   0.0000000000,   0.0000000000,   5.4310000000)


Analysis of symmetry for initial positions (statically):
=====================================================================
 Subroutine PRICEL returns following result:
 
  LATTYP: Found a face centered cubic cell.
 ALAT       =     5.4310000000
  
  Lattice vectors:
  
 A1 = (   2.7155000000,   2.7155000000,   0.0000000000)
 A2 = (   2.7155000000,   0.0000000000,  -2.7155000000)
 A3 = (   0.0000000000,   2.7155000000,  -2.7155000000)
 
   4 primitive cells build up your supercell.
 

 Routine SETGRP: Setting up the symmetry group for a 
 simple cubic supercell.


 Subroutine GETGRP returns: Found 48 space group operations
 (whereof 24 operations were pure point group operations)
 out of a pool of 48 trial point group operations.


The static configuration has the point symmetry T_d .
 The point group associated with its full space group is O_h .


Analysis of symmetry for dynamics (positions and initial velocities):
=====================================================================
 Subroutine PRICEL returns following result:
 
  LATTYP: Found a face centered cubic cell.
 ALAT       =     5.4310000000
  
  Lattice vectors:
  
 A1 = (   2.7155000000,   2.7155000000,   0.0000000000)
 A2 = (   2.7155000000,   0.0000000000,  -2.7155000000)
 A3 = (   0.0000000000,   2.7155000000,  -2.7155000000)
 
   4 primitive cells build up your supercell.
 

 Routine SETGRP: Setting up the symmetry group for a 
 simple cubic supercell.


 Subroutine GETGRP returns: Found 48 space group operations
 (whereof 24 operations were pure point group operations)
 out of a pool of 48 trial point group operations.


The dynamic configuration has the point symmetry T_d .
 The point group associated with its full space group is O_h .


 Subroutine INISYM returns: Found 48 space group operations
 (whereof 24 operations are pure point group operations),
 and found     4 'primitive' translations

 
 
 KPOINTS: k-points                                

Automatic generation of k-mesh.
Space group operators:
 irot       det(A)        alpha          n_x          n_y          n_z        tau_x        tau_y        tau_z
    1     1.000000     0.000001     1.000000     0.000000     0.000000     0.000000     0.000000     0.000000
    2     1.000000   120.000000    -0.577350    -0.577350    -0.577350     0.000000     0.000000     0.000000
    3     1.000000   120.000000     0.577350     0.577350     0.577350     0.000000     0.000000     0.000000
    4    -1.000000    90.000000     0.000000     0.000000    -1.000000     0.000000     0.000000     0.000000
    5    -1.000000   180.000000     0.000000     0.707107     0.707107     0.000000     0.000000     0.000000
    6    -1.000000    90.000000     0.000000     1.000000     0.000000     0.000000     0.000000     0.000000
    7     1.000000   180.000000     0.000000     0.000000     1.000000     0.000000     0.000000     0.000000
    8     1.000000   120.000000    -0.577350     0.577350     0.577350     0.000000     0.000000     0.000000
    9     1.000000   120.000000    -0.577350     0.577350    -0.577350     0.000000     0.000000     0.000000
   10    -1.000000    90.000000     0.000000     0.000000     1.000000     0.000000     0.000000     0.000000
   11    -1.000000    90.000000    -1.000000     0.000000     0.000000     0.000000     0.000000     0.000000
   12    -1.000000   180.000000     0.707107     0.000000     0.707107     0.000000     0.000000     0.000000
   13     1.000000   120.000000     0.577350    -0.577350     0.577350     0.000000     0.000000     0.000000
   14     1.000000   120.000000    -0.577350    -0.577350     0.577350     0.000000     0.000000     0.000000
   15     1.000000   180.000000     1.000000     0.000000     0.000000     0.000000     0.000000     0.000000
   16    -1.000000    90.000000     0.000000    -1.000000     0.000000     0.000000     0.000000     0.000000
   17    -1.000000   180.000000     0.707107     0.707107     0.000000     0.000000     0.000000     0.000000
   18    -1.000000    90.000000     1.000000     0.000000     0.000000     0.000000     0.000000     0.000000
   19     1.000000   120.000000     0.577350    -0.577350    -0.577350     0.000000     0.000000     0.000000
   20     1.000000   180.000000     0.000000     1.000000     0.000000     0.000000     0.000000     0.000000
   21     1.000000   120.000000     0.577350     0.577350    -0.577350     0.000000     0.000000     0.000000
   22    -1.000000   180.000000     0.000000    -0.707107     0.707107     0.000000     0.000000     0.000000
   23    -1.000000   180.000000     0.707107    -0.707107     0.000000     0.000000     0.000000     0.000000
   24    -1.000000   180.000000     0.707107     0.000000    -0.707107     0.000000     0.000000     0.000000
   25    -1.000000     0.000001     1.000000     0.000000     0.000000     0.750000     0.750000    -0.750000
   26    -1.000000   120.000000    -0.577350    -0.577350    -0.577350     0.750000     0.750000    -0.750000
   27    -1.000000   120.000000     0.577350     0.577350     0.577350     0.750000     0.750000    -0.750000
   28     1.000000    90.000000     0.000000     0.000000    -1.000000     0.750000     0.750000    -0.750000
   29     1.000000   180.000000     0.000000     0.707107     0.707107     0.750000     0.750000    -0.750000
   30     1.000000    90.000000     0.000000     1.000000     0.000000     0.750000     0.750000    -0.750000
   31    -1.000000   180.000000     0.000000     0.000000     1.000000     0.750000     0.750000    -0.750000
   32    -1.000000   120.000000    -0.577350     0.577350     0.577350     0.750000     0.750000    -0.750000
   33    -1.000000   120.000000    -0.577350     0.577350    -0.577350     0.750000     0.750000    -0.750000
   34     1.000000    90.000000     0.000000     0.000000     1.000000     0.750000     0.750000    -0.750000
   35     1.000000    90.000000    -1.000000     0.000000     0.000000     0.750000     0.750000    -0.750000
   36     1.000000   180.000000     0.707107     0.000000     0.707107     0.750000     0.750000    -0.750000
   37    -1.000000   120.000000     0.577350    -0.577350     0.577350     0.750000     0.750000    -0.750000
   38    -1.000000   120.000000    -0.577350    -0.577350     0.577350     0.750000     0.750000    -0.750000
   39    -1.000000   180.000000     1.000000     0.000000     0.000000     0.750000     0.750000    -0.750000
   40     1.000000    90.000000     0.000000    -1.000000     0.000000     0.750000     0.750000    -0.750000
   41     1.000000   180.000000     0.707107     0.707107     0.000000     0.750000     0.750000    -0.750000
   42     1.000000    90.000000     1.000000     0.000000     0.000000     0.750000     0.750000    -0.750000
   43    -1.000000   120.000000     0.577350    -0.577350    -0.577350     0.750000     0.750000    -0.750000
   44    -1.000000   180.000000     0.000000     1.000000     0.000000     0.750000     0.750000    -0.750000
   45    -1.000000   120.000000     0.577350     0.577350    -0.577350     0.750000     0.750000    -0.750000
   46     1.000000   180.000000     0.000000    -0.707107     0.707107     0.750000     0.750000    -0.750000
   47     1.000000   180.000000     0.707107    -0.707107     0.000000     0.750000     0.750000    -0.750000
   48     1.000000   180.000000     0.707107     0.000000    -0.707107     0.750000     0.750000    -0.750000
 
 Subroutine IBZKPT returns following result:
 ===========================================
 
 Found      4 irreducible k-points:
 
 Following reciprocal coordinates:
            Coordinates               Weight
  0.125000  0.125000  0.125000      8.000000
  0.375000  0.125000  0.125000     24.000000
  0.375000  0.375000  0.125000     24.000000
  0.375000  0.375000  0.375000      8.000000
 
 Following cartesian coordinates:
            Coordinates               Weight
  0.125000  0.125000  0.125000      8.000000
  0.375000  0.125000  0.125000     24.000000
  0.375000  0.375000  0.125000     24.000000
  0.375000  0.375000  0.375000      8.000000
 


--------------------------------------------------------------------------------------------------------




 Dimension of arrays:
   k-points           NKPTS =      4   k-points in BZ     NKDIM =      4   number of bands    NBANDS=     25
   number of dos      NEDOS =    301   number of ions     NIONS =      8
   non local maximal  LDIM  =      4   non local SUM 2l+1 LMDIM =      8
   total plane-waves  NPLWV =  21952
   max r-space proj   IRMAX =      1   max aug-charges    IRDMAX=   4781
   dimension x,y,z NGX =    28 NGY =   28 NGZ =   28
   dimension x,y,z NGXF=    56 NGYF=   56 NGZF=   56
   support grid    NGXF=    56 NGYF=   56 NGZF=   56
   ions per type =               8
 NGX,Y,Z   is equivalent  to a cutoff of   8.57,  8.57,  8.57 a.u.
 NGXF,Y,Z  is equivalent  to a cutoff of  17.14, 17.14, 17.14 a.u.


 I would recommend the setting:
   dimension x,y,z NGX =    27 NGY =   27 NGZ =   27
 SYSTEM =  diamond Si                              
 POSCAR =  Si dia                                  

 Startparameter for this run:
   NWRITE =      2    write-flag & timer
   PREC   = accura    normal or accurate (medium, high low for compatibility)
   ISTART =      0    job   : 0-new  1-cont  2-samecut
   ICHARG =      2    charge: 1-file 2-atom 10-const
   ISPIN  =      1    spin polarized calculation?
   LNONCOLLINEAR =      F non collinear calculations
   LSORBIT =      F    spin-orbit coupling
   INIWAV =      1    electr: 0-lowe 1-rand  2-diag
   LASPH  =      F    aspherical Exc in radial PAW
   METAGGA=      F    non-selfconsistent MetaGGA calc.

 Electronic Relaxation 1
   ENCUT  =  240.0 eV  17.64 Ry    4.20 a.u.   6.86  6.86  6.86*2*pi/ulx,y,z
   ENINI  =  240.0     initial cutoff
   ENAUG  =  322.1 eV  augmentation charge cutoff
   NELM   =     60;   NELMIN=  0; NELMDL=  3     # of ELM steps 
   EDIFF  = 0.1E-03   stopping-criterion for ELM
   LREAL  =      F    real-space projection
   NLSPLINE    = F    spline interpolate recip. space projectors
   LCOMPAT=      F    compatible to vasp.4.4
   GGA_COMPAT  = T    GGA compatible to vasp.4.4-vasp.4.6
   LMAXPAW     = -100 max onsite density
   LMAXMIX     =    2 max onsite mixed and CHGCAR
   VOSKOWN=      0    Vosko Wilk Nusair interpolation
   ROPT   =    0.00000
 Ionic relaxation
   EDIFFG = -.1E-01   stopping-criterion for IOM
   NSW    =      9    number of steps for IOM
   NBLOCK =      1;   KBLOCK =      9    inner block; outer block 
   IBRION =      2    ionic relax: 0-MD 1-quasi-New 2-CG
   NFREE  =      1    steps in history (QN), initial steepest desc. (CG)
   ISIF   =      3    stress and relaxation
   IWAVPR =     11    prediction:  0-non 1-charg 2-wave 3-comb
   ISYM   =      2    0-nonsym 1-usesym 2-fastsym
   LCORR  =      T    Harris-Foulkes like correction to forces

   POTIM  = 1.0000    time-step for ionic-motion
   TEIN   =    0.0    initial temperature
   TEBEG  =    0.0;   TEEND  =   0.0 temperature during run
   SMASS  =  -3.00    Nose mass-parameter (am)
   estimated Nose-frequenzy (Omega)   =  0.10E-29 period in steps =****** mass=  -0.674E-27a.u.
   SCALEE = 1.0000    scale energy and forces
   NPACO  =    256;   APACO  = 16.0  distance and # of slots for P.C.
   PSTRESS=    0.0 pullay stress

  Mass of Ions in am
   POMASS =  28.09
  Ionic Valenz
   ZVAL   =   4.00
  Atomic Wigner-Seitz radii
   RWIGS  =  -1.00
  virtual crystal weights 
   VCA    =   1.00
   NELECT =      32.0000    total number of electrons
   NUPDOWN=      -1.0000    fix difference up-down

 DOS related values:
   EMIN   =  10.00;   EMAX   =-10.00  energy-range for DOS
   EFERMI =   0.00
   ISMEAR =     0;   SIGMA  =   0.10  broadening in eV -4-tet -1-fermi 0-gaus

 Electronic relaxation 2 (details)
   IALGO  =     38    algorithm
   LDIAG  =      T    sub-space diagonalisation (order eigenvalues)
   LSUBROT=      F    optimize rotation matrix (better conditioning)
   TURBO    =      0    0=normal 1=particle mesh
   IRESTART =      0    0=no restart 2=restart with 2 vectors
   NREBOOT  =      0    no. of reboots
   NMIN     =      0    reboot dimension
   EREF     =   0.00    reference energy to select bands
   IMIX   =      4    mixing-type and parameters
     AMIX     =   0.40;   BMIX     =  1.00
     AMIX_MAG =   1.60;   BMIX_MAG =  1.00
     AMIN     =   0.10
     WC   =   100.;   INIMIX=   1;  MIXPRE=   1;  MAXMIX= -45

 Intra band minimization:
   WEIMIN = 0.0010     energy-eigenvalue tresh-hold
   EBREAK =  0.10E-05  absolut break condition
   DEPER  =   0.30     relativ break condition  

   TIME   =   0.40     timestep for ELM

  volume/ion in A,a.u.               =      20.02       135.13
  Fermi-wavevector in a.u.,A,eV,Ry     =   0.956999  1.808467 12.460868  0.915848
  Thomas-Fermi vector in A             =   2.085978
 
 Write flags
   LWAVE  =      T    write WAVECAR
   LCHARG =      T    write CHGCAR
   LVTOT  =      F    write LOCPOT, total local potential
   LVHAR  =      F    write LOCPOT, Hartree potential only
   LELF   =      F    write electronic localiz. function (ELF)
   LORBIT =      0    0 simple, 1 ext, 2 COOP (PROOUT)


 Dipole corrections
   LMONO  =      F    monopole corrections only (constant potential shift)
   LDIPOL =      F    correct potential (dipole corrections)
   IDIPOL =      0    1-x, 2-y, 3-z, 4-all directions 
   EPSILON=  1.0000000 bulk dielectric constant

 Exchange correlation treatment:
   GGA     =    --    GGA type
   LEXCH   =     8    internal setting for exchange type
   VOSKOWN=      0    Vosko Wilk Nusair interpolation
   LHFCALC =     F    Hartree Fock is set to
   LHFONE  =     F    Hartree Fock one center treatment
   AEXX    =    0.0000 exact exchange contribution

 Linear response parameters
   LEPSILON=     F    determine dielectric tensor
   LRPA    =     F    only Hartree local field effects (RPA)
   LNABLA  =     F    use nabla operator in PAW spheres
   LVEL    =     F    velocity operator in full k-point grid
   LINTERFAST=   F  fast interpolation
   KINTER  =     0    interpolate to denser k-point grid
   CSHIFT  =0.1000    complex shift for real part using Kramers Kronig
   OMEGAMAX=  -1.0    maximum frequency
   DEG_THRESHOLD= 0.2000000E-02 threshold for treating states as degnerate
   RTIME   =    0.100 relaxation time in fs

 Orbital magnetization related:
   ORBITALMAG=     F  switch on orbital magnetization
   LCHIMAG   =     F  perturbation theory with respect to B field
   DQ        =  0.001000  dq finite difference perturbation B field



--------------------------------------------------------------------------------------------------------


 conjugate gradient relaxation of ions
 charge density and potential will be updated during run
 non-spin polarized calculation
 Variant of blocked Davidson
 Davidson routine will perform the subspace rotation
 perform sub-space diagonalisation
    after iterative eigenvector-optimisation
 modified Broyden-mixing scheme, WC =      100.0
 initial mixing is a Kerker type mixing with AMIX =  0.4000 and BMIX =      1.0000
 Hartree-type preconditioning will be used
 using additional bands            9
 reciprocal scheme for non local part
 use partial core corrections
 calculate Harris-corrections to forces 
   (improved forces if not selfconsistent)
 use gradient corrections 
 use of overlap-Matrix (Vanderbilt PP)
 Gauss-broadening in eV      SIGMA  =   0.10


--------------------------------------------------------------------------------------------------------


  energy-cutoff  :      240.00
  volume of cell :      160.19
      direct lattice vectors                 reciprocal lattice vectors
     5.431000000  0.000000000  0.000000000     0.184128153  0.000000000  0.000000000
     0.000000000  5.431000000  0.000000000     0.000000000  0.184128153  0.000000000
     0.000000000  0.000000000  5.431000000     0.000000000  0.000000000  0.184128153

  length of vectors
     5.431000000  5.431000000  5.431000000     0.184128153  0.184128153  0.184128153


 
 k-points in units of 2pi/SCALE and weight: k-points                                
   0.12500000  0.12500000  0.12500000       0.125
   0.37500000  0.12500000  0.12500000       0.375
   0.37500000  0.37500000  0.12500000       0.375
   0.37500000  0.37500000  0.37500000       0.125
 
 k-points in reciprocal lattice and weights: k-points                                
   0.12500000  0.12500000  0.12500000       0.125
   0.37500000  0.12500000  0.12500000       0.375
   0.37500000  0.37500000  0.12500000       0.375
   0.37500000  0.37500000  0.37500000       0.125
 
 position of ions in fractional coordinates (direct lattice) 
   0.00000000  0.00000000  0.00000000
   0.00000000  0.50000000  0.50000000
   0.50000000  0.00000000  0.50000000
   0.50000000  0.50000000  0.00000000
   0.25000000  0.25000000  0.25000000
   0.75000000  0.75000000  0.25000000
   0.75000000  0.25000000  0.75000000
   0.25000000  0.75000000  0.75000000
 
 position of ions in cartesian coordinates  (Angst):
   0.00000000  0.00000000  0.00000000
   0.00000000  2.71550000  2.71550000
   2.71550000  0.00000000  2.71550000
   2.71550000  2.71550000  0.00000000
   1.35775000  1.35775000  1.35775000
   4.07325000  4.07325000  1.35775000
   4.07325000  1.35775000  4.07325000
   1.35775000  4.07325000  4.07325000
 


--------------------------------------------------------------------------------------------------------


 k-point  1 :   0.1250 0.1250 0.1250  plane waves:    1349
 k-point  2 :   0.3750 0.1250 0.1250  plane waves:    1350
 k-point  3 :   0.3750 0.3750 0.1250  plane waves:    1358
 k-point  4 :   0.3750 0.3750 0.3750  plane waves:    1361

 maximum and minimum number of plane-waves per node :       174      158

 maximum number of plane-waves:      1361
 maximum index in each direction: 
   IXMAX=    6   IYMAX=    6   IZMAX=    6
   IXMIN=   -7   IYMIN=   -7   IZMIN=   -7

 NGX is ok and might be reduce to  28
 NGY is ok and might be reduce to  28
 NGZ is ok and might be reduce to  28

 total amount of memory used by VASP on root node    30701. kBytes
========================================================================

   base      :      30000. kBytes
   nonl-proj :         67. kBytes
   fftplans  :        243. kBytes
   grid      :        329. kBytes
   one-center:          3. kBytes
   wavefun   :         59. kBytes
 
     INWAV:  cpu time    0.0000: real time    0.0000
 Broyden mixing: mesh for mixing (old mesh)
   NGX = 13   NGY = 13   NGZ = 13
  (NGX  = 56   NGY  = 56   NGZ  = 56)
  gives a total of   2197 points

 initial charge density was supplied:
 charge density of overlapping atoms calculated
 number of electron      32.0000000 magnetization 
 keeping initial charge density in first step


--------------------------------------------------------------------------------------------------------


 Maximum index for augmentation-charges          125 (set IRDMAX)


--------------------------------------------------------------------------------------------------------


 First call to EWALD:  gamma=   0.326
 Maximum number of real-space cells 3x 3x 3
 Maximum number of reciprocal cells 3x 3x 3

 FEWALD executed in parallel
    FEWALD:  cpu time    0.0012: real time    0.0012


----------------------------------------- Iteration    1(   1)  ---------------------------------------


    POTLOK:  cpu time    0.0062: real time    0.0064
    SETDIJ:  cpu time    0.0015: real time    0.0016
     EDDAV:  cpu time    0.2247: real time    0.2300
       DOS:  cpu time    0.0003: real time    0.0003
    --------------------------------------------
      LOOP:  cpu time    0.2340: real time    0.2408

 eigenvalue-minimisations  :   200
 total energy-change (2. order) : 0.3469033E+02  (-0.7932231E+03)
 number of electron      32.0000000 magnetization 
 augmentation part       32.0000000 magnetization 

 Free energy of the ion-electron system (eV)
  ---------------------------------------------------
  alpha Z        PSCENC =        13.44915721
  Ewald energy   TEWEN  =      -914.08579262
  -Hartree energ DENC   =       -44.03749844
  -exchange      EXHF   =         0.00000000
  -V(xc)+E(xc)   XCENC  =       -74.41614067
  PAW double counting   =       704.99039692     -564.24414232
  entropy T*S    EENTRO =        -0.02160333
  eigenvalues    EBANDS =        88.56974292
  atomic energy  EATOM  =       824.48621262
  Solvation  Ediel_sol  =         0.00000000
  ---------------------------------------------------
  free energy    TOTEN  =        34.69033229 eV

  energy without entropy =       34.71193563  energy(sigma->0) =       34.70113396


--------------------------------------------------------------------------------------------------------




----------------------------------------- Iteration    1(   2)  ---------------------------------------


     EDDAV:  cpu time    0.0372: real time    0.0373
       DOS:  cpu time    0.0001: real time    0.0001
    --------------------------------------------
      LOOP:  cpu time    0.0376: real time    0.0477

 eigenvalue-minimisations  :   260
 total energy-change (2. order) :-0.7593610E+02  (-0.7348639E+02)
 number of electron      32.0000000 magnetization 
 augmentation part       32.0000000 magnetization 

 Free energy of the ion-electron system (eV)
  ---------------------------------------------------
  alpha Z        PSCENC =        13.44915721
  Ewald energy   TEWEN  =      -914.08579262
  -Hartree energ DENC   =       -44.03749844
  -exchange      EXHF   =         0.00000000
  -V(xc)+E(xc)   XCENC  =       -74.41614067
  PAW double counting   =       704.99039692     -564.24414232
  entropy T*S    EENTRO =        -0.00000000
  eigenvalues    EBANDS =        12.61204280
  atomic energy  EATOM  =       824.48621262
  Solvation  Ediel_sol  =         0.00000000
  ---------------------------------------------------
  free energy    TOTEN  =       -41.24576449 eV

  energy without entropy =      -41.24576449  energy(sigma->0) =      -41.24576449


--------------------------------------------------------------------------------------------------------




----------------------------------------- Iteration    1(   3)  ---------------------------------------


     EDDAV:  cpu time    0.0350: real time    0.0351
       DOS:  cpu time    0.0001: real time    0.0001
    CHARGE:  cpu time    0.0059: real time    0.0060
    MIXING:  cpu time    0.0009: real time    0.0011
    --------------------------------------------
      LOOP:  cpu time    0.0423: real time    0.0458

 eigenvalue-minimisations  :   265
 total energy-change (2. order) :-0.2716657E+01  (-0.2703256E+01)
 number of electron      31.9999960 magnetization 
 augmentation part       -1.8730910 magnetization 

 Broyden mixing:
  rms(total) = 0.11245E+01    rms(broyden)= 0.11245E+01
  rms(prec ) = 0.14635E+01
  weight for this iteration     100.00

 Free energy of the ion-electron system (eV)
  ---------------------------------------------------
  alpha Z        PSCENC =        13.44915721
  Ewald energy   TEWEN  =      -914.08579262
  -Hartree energ DENC   =       -44.03749844
  -exchange      EXHF   =         0.00000000
  -V(xc)+E(xc)   XCENC  =       -74.41614067
  PAW double counting   =       704.99039692     -564.24414232
  entropy T*S    EENTRO =        -0.00000000
  eigenvalues    EBANDS =         9.89538584
  atomic energy  EATOM  =       824.48621262
  Solvation  Ediel_sol  =         0.00000000
  ---------------------------------------------------
  free energy    TOTEN  =       -43.96242146 eV

  energy without entropy =      -43.96242146  energy(sigma->0) =      -43.96242146


--------------------------------------------------------------------------------------------------------




----------------------------------------- Iteration    1(   4)  ---------------------------------------


    POTLOK:  cpu time    0.0044: real time    0.0044
    SETDIJ:  cpu time    0.0011: real time    0.0011
     EDDAV:  cpu time    0.0364: real time    0.0366
       DOS:  cpu time    0.0001: real time    0.0001
    CHARGE:  cpu time    0.0050: real time    0.0050
    MIXING:  cpu time    0.0008: real time    0.0008
    --------------------------------------------
      LOOP:  cpu time    0.0482: real time    0.0520

 eigenvalue-minimisations  :   270
 total energy-change (2. order) : 0.4699619E+00  (-0.4300914E-01)
 number of electron      31.9999960 magnetization 
 augmentation part       -1.8525590 magnetization 

 Broyden mixing:
  rms(total) = 0.66368E+00    rms(broyden)= 0.66368E+00
  rms(prec ) = 0.86659E+00
  weight for this iteration     100.00

 eigenvalues of (default mixing * dielectric matrix)
  average eigenvalue GAMMA=   2.4243
  2.4243

 Free energy of the ion-electron system (eV)
  ---------------------------------------------------
  alpha Z        PSCENC =        13.44915721
  Ewald energy   TEWEN  =      -914.08579262
  -Hartree energ DENC   =       -49.95749607
  -exchange      EXHF   =         0.00000000
  -V(xc)+E(xc)   XCENC  =       -73.45315641
  PAW double counting   =      1746.03684658    -1605.74213105
  entropy T*S    EENTRO =        -0.00000000
  eigenvalues    EBANDS =        15.77390017
  atomic energy  EATOM  =       824.48621262
  Solvation  Ediel_sol  =         0.00000000
  ---------------------------------------------------
  free energy    TOTEN  =       -43.49245956 eV

  energy without entropy =      -43.49245956  energy(sigma->0) =      -43.49245956


--------------------------------------------------------------------------------------------------------




----------------------------------------- Iteration    1(   5)  ---------------------------------------


    POTLOK:  cpu time    0.0041: real time    0.0041
    SETDIJ:  cpu time    0.0011: real time    0.0011
     EDDAV:  cpu time    0.0328: real time    0.0329
       DOS:  cpu time    0.0001: real time    0.0001
    CHARGE:  cpu time    0.0049: real time    0.0049
    MIXING:  cpu time    0.0005: real time    0.0005
    --------------------------------------------
      LOOP:  cpu time    0.0438: real time    0.0477

 eigenvalue-minimisations  :   225
 total energy-change (2. order) : 0.2296577E+00  (-0.4904837E-01)
 number of electron      31.9999961 magnetization 
 augmentation part       -1.8248033 magnetization 

 Broyden mixing:
  rms(total) = 0.38467E-01    rms(broyden)= 0.38465E-01
  rms(prec ) = 0.56910E-01
  weight for this iteration     100.00

 eigenvalues of (default mixing * dielectric matrix)
  average eigenvalue GAMMA=   1.8477
  1.1621  2.5334

 Free energy of the ion-electron system (eV)
  ---------------------------------------------------
  alpha Z        PSCENC =        13.44915721
  Ewald energy   TEWEN  =      -914.08579262
  -Hartree energ DENC   =       -59.70770870
  -exchange      EXHF   =         0.00000000
  -V(xc)+E(xc)   XCENC  =       -71.85759770
  PAW double counting   =      4212.13968870    -4072.43507606
  entropy T*S    EENTRO =        -0.00000000
  eigenvalues    EBANDS =        24.74831469
  atomic energy  EATOM  =       824.48621262
  Solvation  Ediel_sol  =         0.00000000
  ---------------------------------------------------
  free energy    TOTEN  =       -43.26280187 eV

  energy without entropy =      -43.26280187  energy(sigma->0) =      -43.26280187


--------------------------------------------------------------------------------------------------------




----------------------------------------- Iteration    1(   6)  ---------------------------------------


    POTLOK:  cpu time    0.0040: real time    0.0040
    SETDIJ:  cpu time    0.0011: real time    0.0011
     EDDAV:  cpu time    0.0339: real time    0.0341
       DOS:  cpu time    0.0001: real time    0.0001
    CHARGE:  cpu time    0.0049: real time    0.0049
    MIXING:  cpu time    0.0005: real time    0.0005
    --------------------------------------------
      LOOP:  cpu time    0.0448: real time    0.0484

 eigenvalue-minimisations  :   255
 total energy-change (2. order) :-0.4662628E-02  (-0.1975367E-02)
 number of electron      31.9999961 magnetization 
 augmentation part       -1.8264077 magnetization 

 Broyden mixing:
  rms(total) = 0.20625E-01    rms(broyden)= 0.20624E-01
  rms(prec ) = 0.30253E-01
  weight for this iteration     100.00

 eigenvalues of (default mixing * dielectric matrix)
  average eigenvalue GAMMA=   1.9577
  2.5213  2.5213  0.8305

 Free energy of the ion-electron system (eV)
  ---------------------------------------------------
  alpha Z        PSCENC =        13.44915721
  Ewald energy   TEWEN  =      -914.08579262
  -Hartree energ DENC   =       -59.69982939
  -exchange      EXHF   =         0.00000000
  -V(xc)+E(xc)   XCENC  =       -71.82966482
  PAW double counting   =      4285.38331035    -4145.61858228
  entropy T*S    EENTRO =        -0.00000000
  eigenvalues    EBANDS =        24.64772443
  atomic energy  EATOM  =       824.48621262
  Solvation  Ediel_sol  =         0.00000000
  ---------------------------------------------------
  free energy    TOTEN  =       -43.26746450 eV

  energy without entropy =      -43.26746450  energy(sigma->0) =      -43.26746450


--------------------------------------------------------------------------------------------------------




----------------------------------------- Iteration    1(   7)  ---------------------------------------


    POTLOK:  cpu time    0.0039: real time    0.0039
    SETDIJ:  cpu time    0.0011: real time    0.0011
     EDDAV:  cpu time    0.0316: real time    0.0317
       DOS:  cpu time    0.0001: real time    0.0001
    CHARGE:  cpu time    0.0054: real time    0.0054
    MIXING:  cpu time    0.0004: real time    0.0004
    --------------------------------------------
      LOOP:  cpu time    0.0429: real time    0.0464

 eigenvalue-minimisations  :   230
 total energy-change (2. order) :-0.1656476E-02  (-0.3083228E-03)
 number of electron      31.9999961 magnetization 
 augmentation part       -1.8286532 magnetization 

 Broyden mixing:
  rms(total) = 0.11615E-01    rms(broyden)= 0.11615E-01
  rms(prec ) = 0.13716E-01
  weight for this iteration     100.00

 eigenvalues of (default mixing * dielectric matrix)
  average eigenvalue GAMMA=   1.7734
  2.4547  2.4547  1.0921  1.0921

 Free energy of the ion-electron system (eV)
  ---------------------------------------------------
  alpha Z        PSCENC =        13.44915721
  Ewald energy   TEWEN  =      -914.08579262
  -Hartree energ DENC   =       -59.51632246
  -exchange      EXHF   =         0.00000000
  -V(xc)+E(xc)   XCENC  =       -71.83531520
  PAW double counting   =      4255.90492377    -4116.07583686
  entropy T*S    EENTRO =        -0.00000000
  eigenvalues    EBANDS =        24.40385257
  atomic energy  EATOM  =       824.48621262
  Solvation  Ediel_sol  =         0.00000000
  ---------------------------------------------------
  free energy    TOTEN  =       -43.26912097 eV

  energy without entropy =      -43.26912097  energy(sigma->0) =      -43.26912097


--------------------------------------------------------------------------------------------------------




----------------------------------------- Iteration    1(   8)  ---------------------------------------


    POTLOK:  cpu time    0.0039: real time    0.0039
    SETDIJ:  cpu time    0.0011: real time    0.0011
     EDDAV:  cpu time    0.0293: real time    0.0301
       DOS:  cpu time    0.0001: real time    0.0001
    CHARGE:  cpu time    0.0048: real time    0.0049
    MIXING:  cpu time    0.0005: real time    0.0005
    --------------------------------------------
      LOOP:  cpu time    0.0401: real time    0.0437

 eigenvalue-minimisations  :   200
 total energy-change (2. order) :-0.1084500E-03  (-0.1616253E-04)
 number of electron      31.9999961 magnetization 
 augmentation part       -1.8283944 magnetization 

 Broyden mixing:
  rms(total) = 0.63806E-02    rms(broyden)= 0.63806E-02
  rms(prec ) = 0.68990E-02
  weight for this iteration     100.00

 eigenvalues of (default mixing * dielectric matrix)
  average eigenvalue GAMMA=   1.9448
  3.0722  2.5073  2.2418  0.9893  0.9134

 Free energy of the ion-electron system (eV)
  ---------------------------------------------------
  alpha Z        PSCENC =        13.44915721
  Ewald energy   TEWEN  =      -914.08579262
  -Hartree energ DENC   =       -59.64610424
  -exchange      EXHF   =         0.00000000
  -V(xc)+E(xc)   XCENC  =       -71.81884800
  PAW double counting   =      4238.69974421    -4098.87990880
  entropy T*S    EENTRO =        -0.00000000
  eigenvalues    EBANDS =        24.52631020
  atomic energy  EATOM  =       824.48621262
  Solvation  Ediel_sol  =         0.00000000
  ---------------------------------------------------
  free energy    TOTEN  =       -43.26922942 eV

  energy without entropy =      -43.26922942  energy(sigma->0) =      -43.26922942


--------------------------------------------------------------------------------------------------------




----------------------------------------- Iteration    1(   9)  ---------------------------------------


    POTLOK:  cpu time    0.0038: real time    0.0039
    SETDIJ:  cpu time    0.0011: real time    0.0011
     EDDAV:  cpu time    0.0276: real time    0.0278
       DOS:  cpu time    0.0001: real time    0.0001
    --------------------------------------------
      LOOP:  cpu time    0.0330: real time    0.0362

 eigenvalue-minimisations  :   180
 total energy-change (2. order) :-0.5280801E-04  (-0.7106462E-05)
 number of electron      31.9999961 magnetization 
 augmentation part       -1.8283944 magnetization 

 Free energy of the ion-electron system (eV)
  ---------------------------------------------------
  alpha Z        PSCENC =        13.44915721
  Ewald energy   TEWEN  =      -914.08579262
  -Hartree energ DENC   =       -59.68826638
  -exchange      EXHF   =         0.00000000
  -V(xc)+E(xc)   XCENC  =       -71.81472120
  PAW double counting   =      4209.40982361    -4069.59073721
  entropy T*S    EENTRO =        -0.00000000
  eigenvalues    EBANDS =        24.56504174
  atomic energy  EATOM  =       824.48621262
  Solvation  Ediel_sol  =         0.00000000
  ---------------------------------------------------
  free energy    TOTEN  =       -43.26928223 eV

  energy without entropy =      -43.26928223  energy(sigma->0) =      -43.26928223


--------------------------------------------------------------------------------------------------------




 average (electrostatic) potential at core
  the test charge radii are     0.9892
  (the norm of the test charge is              1.0000)
       1 -83.2527       2 -83.2527       3 -83.2527       4 -83.2527       5 -83.2527
       6 -83.2527       7 -83.2527       8 -83.2527
 
 
 
 E-fermi :   6.0441     XC(G=0):  -9.4089     alpha+bet :-11.9779


 k-point     1 :       0.1250    0.1250    0.1250
  band No.  band energies     occupation 
      1      -5.9274      2.00000
      2      -2.8395      2.00000
      3      -2.8395      2.00000
      4      -2.8395      2.00000
      5      -0.9996      2.00000
      6      -0.9996      2.00000
      7      -0.9996      2.00000
      8       2.3962      2.00000
      9       2.3962      2.00000
     10       2.3962      2.00000
     11       3.1484      2.00000
     12       3.1484      2.00000
     13       3.1484      2.00000
     14       4.2364      2.00000
     15       5.5475      2.00000
     16       5.5475      2.00000
     17       6.7403      0.00000
     18       6.7403      0.00000
     19       6.7403      0.00000
     20       7.8146      0.00000
     21       7.8146      0.00000
     22       7.8146      0.00000
     23       8.3416      0.00000
     24       8.8302      0.00000
     25       8.8302      0.00000

 k-point     2 :       0.3750    0.1250    0.1250
  band No.  band energies     occupation 
      1      -5.3900      2.00000
      2      -4.3393      2.00000
      3      -2.6634      2.00000
      4      -2.6634      2.00000
      5      -1.1015      2.00000
      6      -1.1015      2.00000
      7       0.8910      2.00000
      8       1.7714      2.00000
      9       1.7714      2.00000
     10       2.6089      2.00000
     11       2.8721      2.00000
     12       2.8721      2.00000
     13       3.1619      2.00000
     14       3.6241      2.00000
     15       4.5151      2.00000
     16       4.5922      2.00000
     17       7.1949      0.00000
     18       7.9909      0.00000
     19       8.2359      0.00000
     20       8.2359      0.00000
     21       8.7448      0.00000
     22       9.5505      0.00000
     23      10.1333      0.00000
     24      10.1336      0.00000
     25      10.3167      0.00000

 k-point     3 :       0.3750    0.3750    0.1250
  band No.  band energies     occupation 
      1      -4.8814      2.00000
      2      -3.9137      2.00000
      3      -3.9137      2.00000
      4      -3.2092      2.00000
      5      -0.8105      2.00000
      6      -0.0103      2.00000
      7      -0.0103      2.00000
      8       1.2064      2.00000
      9       1.8389      2.00000
     10       2.5113      2.00000
     11       2.5113      2.00000
     12       3.5227      2.00000
     13       3.9036      2.00000
     14       3.9036      2.00000
     15       3.9455      2.00000
     16       5.0598      2.00000
     17       7.6903      0.00000
     18       8.5623      0.00000
     19       8.7243      0.00000
     20       8.7243      0.00000
     21       9.4039      0.00000
     22       9.4039      0.00000
     23       9.5222      0.00000
     24       9.7080      0.00000
     25      10.8711      0.00000

 k-point     4 :       0.3750    0.3750    0.3750
  band No.  band energies     occupation 
      1      -4.4382      2.00000
      2      -3.7136      2.00000
      3      -3.7136      2.00000
      4      -3.7136      2.00000
      5      -0.9179      2.00000
      6      -0.9179      2.00000
      7      -0.9179      2.00000
      8      -0.1159      2.00000
      9       3.5531      2.00000
     10       3.5531      2.00000
     11       3.5531      2.00000
     12       4.2705      2.00000
     13       4.2705      2.00000
     14       4.2705      2.00000
     15       4.7463      2.00000
     16       4.7463      2.00000
     17       7.5072      0.00000
     18       8.0391      0.00000
     19       8.0391      0.00000
     20       8.0391      0.00000
     21       9.3027      0.00000
     22       9.3027      0.00000
     23       9.3639      0.00000
     24       9.3639      0.00000
     25       9.3639      0.00000


--------------------------------------------------------------------------------------------------------


 soft charge-density along one line, spin component           1
         0         1         2         3         4         5         6         7         8         9
 total charge-density along one line
 
 pseudopotential strength for first ion, spin component:           1
 18.416  25.694  -0.000   0.000  -0.000  -0.000   0.000  -0.000
 25.694  35.851  -0.000   0.000  -0.000  -0.000   0.000  -0.000
 -0.000  -0.000   4.179   0.000   0.000   7.788   0.000   0.000
  0.000   0.000   0.000   4.179  -0.000   0.000   7.788  -0.000
 -0.000  -0.000   0.000  -0.000   4.179   0.000  -0.000   7.788
 -0.000  -0.000   7.788   0.000   0.000  14.522   0.000   0.000
  0.000   0.000   0.000   7.788  -0.000   0.000  14.522  -0.000
 -0.000  -0.000   0.000  -0.000   7.788   0.000  -0.000  14.522
 total augmentation occupancy for first ion, spin component:           1
  6.177  -2.411  -0.000   0.000   0.000   0.000   0.000   0.000
 -2.411   1.048   0.000  -0.000   0.000  -0.000  -0.000   0.000
  0.000   0.000   3.450  -0.000  -0.000  -0.853   0.000   0.000
  0.000   0.000  -0.000   3.450  -0.000   0.000  -0.853   0.000
  0.000   0.000  -0.000  -0.000   3.450   0.000   0.000  -0.853
  0.000  -0.000  -0.853   0.000   0.000   0.219  -0.000   0.000
  0.000   0.000   0.000  -0.853   0.000   0.000   0.219   0.000
  0.000   0.000   0.000   0.000  -0.853  -0.000  -0.000   0.219


------------------------ aborting loop because EDIFF is reached ----------------------------------------


    CHARGE:  cpu time    0.0048: real time    0.0049
    FORLOC:  cpu time    0.0003: real time    0.0004
    FORNL :  cpu time    0.0033: real time    0.0034
    STRESS:  cpu time    0.0079: real time    0.0080
    FORCOR:  cpu time    0.0040: real time    0.0040
    FORHAR:  cpu time    0.0013: real time    0.0015
    MIXING:  cpu time    0.0006: real time    0.0006
    OFIELD:  cpu time    0.0001: real time    0.0001

  FORCE on cell =-STRESS in cart. coord.  units (eV):
  Direction    XX          YY          ZZ          XY          YZ          ZX
  --------------------------------------------------------------------------------------
  Alpha Z    13.44916    13.44916    13.44916
  Ewald    -304.69578  -304.69578  -304.69578     0.00000     0.00000     0.00000
  Hartree    19.89567    19.89567    19.89567    -0.00000    -0.00000    -0.00000
  E(xc)    -101.55565  -101.55565  -101.55565    -0.00000    -0.00000     0.00000
  Local    -117.46894  -117.46894  -117.46894     0.00000    -0.00000     0.00000
  n-local   312.01097   314.60677   309.27678    -3.45871    -2.87314    -2.56634
  augment   -46.42842   -46.42842   -46.42842    -0.00000    -0.00000     0.00000
  Kinetic   220.37331   230.31956   229.02875    -4.59119    -6.35167    -4.06637
  Fock        0.00000     0.00000     0.00000     0.00000     0.00000     0.00000
  -------------------------------------------------------------------------------------
  Total       1.73475     1.73475     1.73475    -0.00000    -0.00000     0.00000
  in kB      17.35034    17.35034    17.35034    -0.00000    -0.00000     0.00000
  external pressure =       17.35 kB  Pullay stress =        0.00 kB


 VOLUME and BASIS-vectors are now :
 -----------------------------------------------------------------------------
  energy-cutoff  :      240.00
  volume of cell :      160.19
      direct lattice vectors                 reciprocal lattice vectors
     5.431000000  0.000000000  0.000000000     0.184128153  0.000000000  0.000000000
     0.000000000  5.431000000  0.000000000     0.000000000  0.184128153  0.000000000
     0.000000000  0.000000000  5.431000000     0.000000000  0.000000000  0.184128153

  length of vectors
     5.431000000  5.431000000  5.431000000     0.184128153  0.184128153  0.184128153


 FORCES acting on ions
    electron-ion (+dipol)            ewald-force                    non-local-force                 convergence-correction
 -----------------------------------------------------------------------------------------------
   0.142E-13 -.136E-14 -.291E-14   0.711E-14 0.000E+00 0.711E-14   0.130E-16 0.243E-16 0.737E-16   -.512E-14 0.274E-14 0.330E-14
   0.168E-13 -.130E-13 -.216E-13   0.711E-14 0.000E+00 0.355E-14   -.347E-17 0.512E-16 -.434E-16   -.509E-14 -.115E-15 -.375E-14
   0.521E-14 -.135E-14 0.332E-12   0.711E-14 0.000E+00 0.355E-14   0.677E-16 -.434E-17 -.156E-16   -.494E-15 0.331E-14 -.487E-14
   -.450E-15 0.128E-12 0.169E-12   0.711E-14 0.000E+00 0.711E-14   0.147E-16 0.520E-17 0.147E-16   -.771E-15 0.117E-15 0.309E-14
   -.128E-13 0.115E-12 -.198E-13   -.121E-13 -.175E-15 -.406E-14   0.000E+00 0.954E-17 -.199E-16   0.244E-14 -.365E-14 -.818E-14
   -.278E-13 -.319E-12 0.378E-12   -.913E-14 -.280E-15 -.407E-14   -.451E-16 -.182E-16 -.564E-16   0.813E-14 0.555E-14 -.846E-14
   -.290E-13 -.105E-12 0.136E-12   -.115E-13 0.418E-15 -.310E-14   0.694E-17 -.199E-16 0.330E-16   0.836E-14 -.321E-14 0.603E-14
   -.186E-13 0.741E-13 -.252E-13   -.987E-14 0.313E-15 -.310E-14   -.833E-16 0.373E-16 0.520E-17   0.180E-14 0.482E-14 0.656E-14
 -----------------------------------------------------------------------------------------------
   -.525E-13 -.123E-12 0.947E-12   -.142E-13 0.276E-15 0.699E-14   -.295E-16 0.850E-16 -.867E-17   0.924E-14 0.957E-14 -.629E-14
 
 
 POSITION                                       TOTAL-FORCE (eV/Angst)
 -----------------------------------------------------------------------------------
      0.00000      0.00000      0.00000        -0.000000     -0.000000      0.000000
      0.00000      2.71550      2.71550         0.000000     -0.000000      0.000000
      2.71550      0.00000      2.71550         0.000000     -0.000000     -0.000000
      2.71550      2.71550      0.00000         0.000000      0.000000      0.000000
      1.35775      1.35775      1.35775        -0.000000      0.000000     -0.000000
      4.07325      4.07325      1.35775         0.000000      0.000000     -0.000000
      4.07325      1.35775      4.07325        -0.000000      0.000000     -0.000000
      1.35775      4.07325      4.07325        -0.000000      0.000000      0.000000
 -----------------------------------------------------------------------------------
    total drift:                               -0.000000     -0.000000      0.000000


--------------------------------------------------------------------------------------------------------



  FREE ENERGIE OF THE ION-ELECTRON SYSTEM (eV)
  ---------------------------------------------------
  free  energy   TOTEN  =       -43.26928223 eV

  energy  without entropy=      -43.26928223  energy(sigma->0) =      -43.26928223
 


--------------------------------------------------------------------------------------------------------


    POTLOK:  cpu time    0.0056: real time    0.0057


--------------------------------------------------------------------------------------------------------




--------------------------------------------------------------------------------------------------------


    WAVPRE:  cpu time    0.0006: real time    0.0007
 FEWALD executed in parallel
    FEWALD:  cpu time    0.0002: real time    0.0002
    GENKIN:  cpu time    0.0007: real time    0.0007
    ORTHCH:  cpu time    0.0013: real time    0.0013
     LOOP+:  cpu time    0.7316: real time    0.7907


----------------------------------------- Iteration    2(   1)  ---------------------------------------


    POTLOK:  cpu time    0.0038: real time    0.0038
    SETDIJ:  cpu time    0.0011: real time    0.0011
     EDDAV:  cpu time    0.0319: real time    0.0321
       DOS:  cpu time    0.0001: real time    0.0001
    --------------------------------------------
      LOOP:  cpu time    0.0376: real time    0.0387

 eigenvalue-minimisations  :   235
 total energy-change (2. order) :-0.1307921E-01  (-0.2617929E+00)
 number of electron      31.9999961 magnetization 
 augmentation part       -1.8283095 magnetization 

 Free energy of the ion-electron system (eV)
  ---------------------------------------------------
  alpha Z        PSCENC =        12.63912708
  Ewald energy   TEWEN  =      -895.35300511
  -Hartree energ DENC   =       -58.46622576
  -exchange      EXHF   =         0.00000000
  -V(xc)+E(xc)   XCENC  =       -73.03077966
  PAW double counting   =      4214.34099415    -4074.52137736
  entropy T*S    EENTRO =        -0.00000000
  eigenvalues    EBANDS =         6.62274542
  atomic energy  EATOM  =       824.48621262
  Solvation  Ediel_sol  =         0.00000000
  ---------------------------------------------------
  free energy    TOTEN  =       -43.28230863 eV

  energy without entropy =      -43.28230863  energy(sigma->0) =      -43.28230863


--------------------------------------------------------------------------------------------------------




----------------------------------------- Iteration    2(   2)  ---------------------------------------


     EDDAV:  cpu time    0.0316: real time    0.0318
       DOS:  cpu time    0.0001: real time    0.0001
    --------------------------------------------
      LOOP:  cpu time    0.0320: real time    0.0353

 eigenvalue-minimisations  :   235
 total energy-change (2. order) :-0.5876766E-02  (-0.5876744E-02)
 number of electron      31.9999961 magnetization 
 augmentation part       -1.8283095 magnetization 

 Free energy of the ion-electron system (eV)
  ---------------------------------------------------
  alpha Z        PSCENC =        12.63912708
  Ewald energy   TEWEN  =      -895.35300511
  -Hartree energ DENC   =       -58.46622576
  -exchange      EXHF   =         0.00000000
  -V(xc)+E(xc)   XCENC  =       -73.03077966
  PAW double counting   =      4214.34099415    -4074.52137736
  entropy T*S    EENTRO =        -0.00000000
  eigenvalues    EBANDS =         6.61686865
  atomic energy  EATOM  =       824.48621262
  Solvation  Ediel_sol  =         0.00000000
  ---------------------------------------------------
  free energy    TOTEN  =       -43.28818539 eV

  energy without entropy =      -43.28818539  energy(sigma->0) =      -43.28818539


--------------------------------------------------------------------------------------------------------




----------------------------------------- Iteration    2(   3)  ---------------------------------------


     EDDAV:  cpu time    0.0319: real time    0.0321
       DOS:  cpu time    0.0001: real time    0.0001
    CHARGE:  cpu time    0.0048: real time    0.0049
    MIXING:  cpu time    0.0003: real time    0.0003
    --------------------------------------------
      LOOP:  cpu time    0.0375: real time    0.0409

 eigenvalue-minimisations  :   240
 total energy-change (2. order) :-0.4712650E-04  (-0.4712646E-04)
 number of electron      31.9999984 magnetization 
 augmentation part       -1.8488189 magnetization 

 Broyden mixing:
  rms(total) = 0.18382E+00    rms(broyden)= 0.18367E+00
  rms(prec ) = 0.29463E+00
  weight for this iteration     100.00

 Free energy of the ion-electron system (eV)
  ---------------------------------------------------
  alpha Z        PSCENC =        12.63912708
  Ewald energy   TEWEN  =      -895.35300511
  -Hartree energ DENC   =       -58.46622576
  -exchange      EXHF   =         0.00000000
  -V(xc)+E(xc)   XCENC  =       -73.03077966
  PAW double counting   =      4214.34099415    -4074.52137736
  entropy T*S    EENTRO =        -0.00000000
  eigenvalues    EBANDS =         6.61682153
  atomic energy  EATOM  =       824.48621262
  Solvation  Ediel_sol  =         0.00000000
  ---------------------------------------------------
  free energy    TOTEN  =       -43.28823252 eV

  energy without entropy =      -43.28823252  energy(sigma->0) =      -43.28823252


--------------------------------------------------------------------------------------------------------




----------------------------------------- Iteration    2(   4)  ---------------------------------------


    POTLOK:  cpu time    0.0038: real time    0.0038
    SETDIJ:  cpu time    0.0011: real time    0.0011
     EDDAV:  cpu time    0.0287: real time    0.0288
       DOS:  cpu time    0.0001: real time    0.0001
    CHARGE:  cpu time    0.0054: real time    0.0054
    MIXING:  cpu time    0.0004: real time    0.0004
    --------------------------------------------
      LOOP:  cpu time    0.0398: real time    0.0424

 eigenvalue-minimisations  :   200
 total energy-change (2. order) : 0.5769650E-01  (-0.2756362E-02)
 number of electron      31.9999984 magnetization 
 augmentation part       -1.8385933 magnetization 

 Broyden mixing:
  rms(total) = 0.91005E-01    rms(broyden)= 0.90997E-01
  rms(prec ) = 0.16041E+00
  weight for this iteration     100.00

 eigenvalues of (default mixing * dielectric matrix)
  average eigenvalue GAMMA=   1.9076
  1.9076

 Free energy of the ion-electron system (eV)
  ---------------------------------------------------
  alpha Z        PSCENC =        12.63912708
  Ewald energy   TEWEN  =      -895.35300511
  -Hartree energ DENC   =       -60.25909186
  -exchange      EXHF   =         0.00000000
  -V(xc)+E(xc)   XCENC  =       -72.97941738
  PAW double counting   =      3934.07994189    -3794.21054815
  entropy T*S    EENTRO =        -0.00000000
  eigenvalues    EBANDS =         8.36624490
  atomic energy  EATOM  =       824.48621262
  Solvation  Ediel_sol  =         0.00000000
  ---------------------------------------------------
  free energy    TOTEN  =       -43.23053602 eV

  energy without entropy =      -43.23053602  energy(sigma->0) =      -43.23053602


--------------------------------------------------------------------------------------------------------




----------------------------------------- Iteration    2(   5)  ---------------------------------------


    POTLOK:  cpu time    0.0038: real time    0.0038
    SETDIJ:  cpu time    0.0011: real time    0.0011
     EDDAV:  cpu time    0.0303: real time    0.0305
       DOS:  cpu time    0.0001: real time    0.0001
    CHARGE:  cpu time    0.0053: real time    0.0053
    MIXING:  cpu time    0.0004: real time    0.0004
    --------------------------------------------
      LOOP:  cpu time    0.0414: real time    0.0442

 eigenvalue-minimisations  :   220
 total energy-change (2. order) : 0.2840567E-01  (-0.4176233E-02)
 number of electron      31.9999984 magnetization 
 augmentation part       -1.8249074 magnetization 

 Broyden mixing:
  rms(total) = 0.30429E-01    rms(broyden)= 0.30428E-01
  rms(prec ) = 0.33728E-01
  weight for this iteration     100.00

 eigenvalues of (default mixing * dielectric matrix)
  average eigenvalue GAMMA=   2.7810
  2.7810  2.7810

 Free energy of the ion-electron system (eV)
  ---------------------------------------------------
  alpha Z        PSCENC =        12.63912708
  Ewald energy   TEWEN  =      -895.35300511
  -Hartree energ DENC   =       -62.47429935
  -exchange      EXHF   =         0.00000000
  -V(xc)+E(xc)   XCENC  =       -72.92060701
  PAW double counting   =      3666.74325790    -3526.77926261
  entropy T*S    EENTRO =        -0.00000000
  eigenvalues    EBANDS =        10.45644615
  atomic energy  EATOM  =       824.48621262
  Solvation  Ediel_sol  =         0.00000000
  ---------------------------------------------------
  free energy    TOTEN  =       -43.20213034 eV

  energy without entropy =      -43.20213034  energy(sigma->0) =      -43.20213034


--------------------------------------------------------------------------------------------------------




----------------------------------------- Iteration    2(   6)  ---------------------------------------


    POTLOK:  cpu time    0.0038: real time    0.0038
    SETDIJ:  cpu time    0.0012: real time    0.0012
     EDDAV:  cpu time    0.0304: real time    0.0305
       DOS:  cpu time    0.0001: real time    0.0001
    CHARGE:  cpu time    0.0048: real time    0.0048
    MIXING:  cpu time    0.0004: real time    0.0004
    --------------------------------------------
      LOOP:  cpu time    0.0410: real time    0.0445

 eigenvalue-minimisations  :   215
 total energy-change (2. order) : 0.2058130E-03  (-0.2095439E-03)
 number of electron      31.9999984 magnetization 
 augmentation part       -1.8235661 magnetization 

 Broyden mixing:
  rms(total) = 0.13539E-01    rms(broyden)= 0.13539E-01
  rms(prec ) = 0.15292E-01
  weight for this iteration     100.00

 eigenvalues of (default mixing * dielectric matrix)
  average eigenvalue GAMMA=   2.0589
  2.6269  1.7750  1.7750

 Free energy of the ion-electron system (eV)
  ---------------------------------------------------
  alpha Z        PSCENC =        12.63912708
  Ewald energy   TEWEN  =      -895.35300511
  -Hartree energ DENC   =       -62.53019441
  -exchange      EXHF   =         0.00000000
  -V(xc)+E(xc)   XCENC  =       -72.95681173
  PAW double counting   =      3850.68135815    -3710.63119345
  entropy T*S    EENTRO =        -0.00000000
  eigenvalues    EBANDS =        10.46258232
  atomic energy  EATOM  =       824.48621262
  Solvation  Ediel_sol  =         0.00000000
  ---------------------------------------------------
  free energy    TOTEN  =       -43.20192453 eV

  energy without entropy =      -43.20192453  energy(sigma->0) =      -43.20192453


--------------------------------------------------------------------------------------------------------




----------------------------------------- Iteration    2(   7)  ---------------------------------------


    POTLOK:  cpu time    0.0038: real time    0.0038
    SETDIJ:  cpu time    0.0011: real time    0.0011
     EDDAV:  cpu time    0.0298: real time    0.0300
       DOS:  cpu time    0.0001: real time    0.0001
    --------------------------------------------
      LOOP:  cpu time    0.0352: real time    0.0388

 eigenvalue-minimisations  :   215
 total energy-change (2. order) : 0.6050375E-04  (-0.2385689E-04)
 number of electron      31.9999984 magnetization 
 augmentation part       -1.8235661 magnetization 

 Free energy of the ion-electron system (eV)
  ---------------------------------------------------
  alpha Z        PSCENC =        12.63912708
  Ewald energy   TEWEN  =      -895.35300511
  -Hartree energ DENC   =       -62.67283676
  -exchange      EXHF   =         0.00000000
  -V(xc)+E(xc)   XCENC  =       -72.93966690
  PAW double counting   =      3784.94778064    -3644.91951097
  entropy T*S    EENTRO =        -0.00000000
  eigenvalues    EBANDS =        10.61003538
  atomic energy  EATOM  =       824.48621262
  Solvation  Ediel_sol  =         0.00000000
  ---------------------------------------------------
  free energy    TOTEN  =       -43.20186403 eV

  energy without entropy =      -43.20186403  energy(sigma->0) =      -43.20186403


--------------------------------------------------------------------------------------------------------




 average (electrostatic) potential at core
  the test charge radii are     0.9892
  (the norm of the test charge is              1.0000)
       1 -83.9364       2 -83.9364       3 -83.9364       4 -83.9364       5 -83.9364
       6 -83.9364       7 -83.9364       8 -83.9364
 
 
 
 E-fermi :   5.4104     XC(G=0):  -9.1678     alpha+bet :-11.2565


 k-point     1 :       0.1250    0.1250    0.1250
  band No.  band energies     occupation 
      1      -6.1333      2.00000
      2      -3.2144      2.00000
      3      -3.2144      2.00000
      4      -3.2144      2.00000
      5      -1.4721      2.00000
      6      -1.4721      2.00000
      7      -1.4721      2.00000
      8       2.0015      2.00000
      9       2.0015      2.00000
     10       2.0015      2.00000
     11       2.6892      2.00000
     12       2.6892      2.00000
     13       2.6892      2.00000
     14       3.6381      2.00000
     15       4.9549      2.00000
     16       4.9549      2.00000
     17       6.2300      0.00000
     18       6.2300      0.00000
     19       6.2300      0.00000
     20       7.2505      0.00000
     21       7.2505      0.00000
     22       7.2505      0.00000
     23       7.5295      0.00000
     24       8.1677      0.00000
     25       8.1677      0.00000

 k-point     2 :       0.3750    0.1250    0.1250
  band No.  band energies     occupation 
      1      -5.6246      2.00000
      2      -4.6310      2.00000
      3      -3.0624      2.00000
      4      -3.0624      2.00000
      5      -1.5608      2.00000
      6      -1.5608      2.00000
      7       0.3419      2.00000
      8       1.4196      2.00000
      9       1.4196      2.00000
     10       2.0381      2.00000
     11       2.4504      2.00000
     12       2.4504      2.00000
     13       2.7072      2.00000
     14       3.1416      2.00000
     15       3.9862      2.00000
     16       4.0282      2.00000
     17       6.6370      0.00000
     18       7.3642      0.00000
     19       7.6388      0.00000
     20       7.6388      0.00000
     21       8.1474      0.00000
     22       8.6759      0.00000
     23       9.4831      0.00000
     24       9.4831      0.00000
     25       9.5826      0.00000

 k-point     3 :       0.3750    0.3750    0.1250
  band No.  band energies     occupation 
      1      -5.1455      2.00000
      2      -4.2356      2.00000
      3      -4.2356      2.00000
      4      -3.5824      2.00000
      5      -1.2387      2.00000
      6      -0.4788      2.00000
      7      -0.4788      2.00000
      8       0.7105      2.00000
      9       1.4610      2.00000
     10       2.0821      2.00000
     11       2.0821      2.00000
     12       3.0346      2.00000
     13       3.4076      2.00000
     14       3.4076      2.00000
     15       3.4389      2.00000
     16       4.4828      2.00000
     17       7.1038      0.00000
     18       7.7493      0.00000
     19       8.0617      0.00000
     20       8.0617      0.00000
     21       8.7160      0.00000
     22       8.7160      0.00000
     23       8.8579      0.00000
     24       9.0339      0.00000
     25      10.1335      0.00000

 k-point     4 :       0.3750    0.3750    0.3750
  band No.  band energies     occupation 
      1      -4.7328      2.00000
      2      -4.0610      2.00000
      3      -4.0610      2.00000
      4      -4.0610      2.00000
      5      -1.2808      2.00000
      6      -1.2808      2.00000
      7      -1.2808      2.00000
      8      -0.5174      2.00000
      9       3.0358      2.00000
     10       3.0358      2.00000
     11       3.0358      2.00000
     12       3.7428      2.00000
     13       3.7428      2.00000
     14       3.7428      2.00000
     15       4.1870      2.00000
     16       4.1870      2.00000
     17       6.6772      0.00000
     18       7.3190      0.00000
     19       7.3190      0.00000
     20       7.3190      0.00000
     21       8.6801      0.00000
     22       8.6801      0.00000
     23       8.6801      0.00000
     24       8.6928      0.00000
     25       8.6928      0.00000


--------------------------------------------------------------------------------------------------------


 soft charge-density along one line, spin component           1
         0         1         2         3         4         5         6         7         8         9
 total charge-density along one line
 
 pseudopotential strength for first ion, spin component:           1
 18.485  25.791  -0.000   0.000  -0.000  -0.000   0.000  -0.000
 25.791  35.988  -0.000   0.000  -0.000  -0.000   0.000  -0.000
 -0.000  -0.000   4.186   0.000   0.000   7.801   0.000   0.000
  0.000   0.000   0.000   4.186  -0.000   0.000   7.801  -0.000
 -0.000  -0.000   0.000  -0.000   4.186   0.000  -0.000   7.801
 -0.000  -0.000   7.801   0.000   0.000  14.548   0.000   0.000
  0.000   0.000   0.000   7.801  -0.000   0.000  14.548  -0.000
 -0.000  -0.000   0.000  -0.000   7.801   0.000  -0.000  14.548
 total augmentation occupancy for first ion, spin component:           1
  5.731  -2.159   0.000   0.000  -0.000   0.000   0.000   0.000
 -2.159   0.922   0.000   0.000   0.000  -0.000  -0.000  -0.000
  0.000   0.000   3.264  -0.000  -0.000  -0.800   0.000   0.000
  0.000   0.000  -0.000   3.264   0.000   0.000  -0.800  -0.000
  0.000   0.000  -0.000   0.000   3.264   0.000  -0.000  -0.800
 -0.000  -0.000  -0.800   0.000   0.000   0.203  -0.000  -0.000
  0.000   0.000   0.000  -0.800  -0.000  -0.000   0.203   0.000
  0.000   0.000   0.000  -0.000  -0.800  -0.000   0.000   0.203


------------------------ aborting loop because EDIFF is reached ----------------------------------------


    CHARGE:  cpu time    0.0048: real time    0.0048
    FORLOC:  cpu time    0.0003: real time    0.0003
    FORNL :  cpu time    0.0032: real time    0.0033
    STRESS:  cpu time    0.0074: real time    0.0074
    FORCOR:  cpu time    0.0038: real time    0.0038
    FORHAR:  cpu time    0.0010: real time    0.0011
    MIXING:  cpu time    0.0005: real time    0.0005
    OFIELD:  cpu time    0.0000: real time    0.0000

  FORCE on cell =-STRESS in cart. coord.  units (eV):
  Direction    XX          YY          ZZ          XY          YZ          ZX
  --------------------------------------------------------------------------------------
  Alpha Z    12.63913    12.63913    12.63913
  Ewald    -298.45151  -298.45151  -298.45151    -0.00000    -0.00000    -0.00000
  Hartree    20.88853    20.88853    20.88853    -0.00000    -0.00000    -0.00000
  E(xc)    -100.15520  -100.15520  -100.15520    -0.00000    -0.00000    -0.00000
  Local    -121.03695  -121.03695  -121.03695     0.00000     0.00000     0.00000
  n-local   307.66021   310.33192   305.23866    -3.29464    -2.76791    -2.47118
  augment   -46.37043   -46.37043   -46.37043    -0.00000    -0.00000    -0.00000
  Kinetic   215.17679   224.76756   222.97941    -4.55868    -6.23109    -4.07857
  Fock        0.00000     0.00000     0.00000     0.00000     0.00000     0.00000
  -------------------------------------------------------------------------------------
  Total      -3.76825    -3.76825    -3.76825     0.00000     0.00000     0.00000
  in kB     -35.41871   -35.41871   -35.41871     0.00000     0.00000     0.00000
  external pressure =      -35.42 kB  Pullay stress =        0.00 kB


 VOLUME and BASIS-vectors are now :
 -----------------------------------------------------------------------------
  energy-cutoff  :      240.00
  volume of cell :      170.46
      direct lattice vectors                 reciprocal lattice vectors
     5.544628668 -0.000000000  0.000000000     0.180354729  0.000000000  0.000000000
    -0.000000000  5.544628668  0.000000000     0.000000000  0.180354729  0.000000000
     0.000000000 -0.000000000  5.544628668    -0.000000000 -0.000000000  0.180354729

  length of vectors
     5.544628668  5.544628668  5.544628668     0.180354729  0.180354729  0.180354729


 FORCES acting on ions
    electron-ion (+dipol)            ewald-force                    non-local-force                 convergence-correction
 -----------------------------------------------------------------------------------------------
   0.871E-13 0.121E-14 -.178E-13   -.355E-14 -.355E-14 -.711E-14   0.503E-16 0.729E-16 0.737E-16   -.748E-15 0.177E-15 0.177E-14
   0.889E-13 -.112E-13 -.343E-13   -.355E-14 -.355E-14 -.711E-14   0.869E-18 0.122E-16 -.867E-17   -.702E-15 -.200E-14 -.344E-15
   0.746E-13 -.221E-14 0.328E-12   -.355E-14 -.355E-14 -.711E-14   0.338E-16 -.156E-16 -.347E-17   -.389E-15 0.964E-16 -.106E-15
   0.771E-13 0.129E-12 0.156E-12   -.355E-14 -.355E-14 -.711E-14   0.382E-16 0.451E-16 0.460E-16   -.657E-15 -.250E-14 0.210E-14
   -.944E-13 0.114E-12 -.307E-13   0.576E-14 0.356E-14 0.696E-14   -.521E-17 -.347E-16 -.364E-16   0.277E-15 0.239E-14 -.813E-14
   -.103E-12 -.314E-12 0.371E-12   0.329E-14 0.338E-14 0.697E-14   -.868E-17 -.486E-16 -.555E-16   0.211E-14 -.740E-15 -.777E-14
   -.108E-12 -.110E-12 0.122E-12   0.455E-14 0.368E-14 0.727E-14   -.260E-17 -.260E-16 0.217E-16   0.192E-14 0.192E-14 0.101E-13
   -.907E-13 0.823E-13 -.391E-13   0.791E-14 0.350E-14 0.728E-14   -.477E-16 0.172E-17 0.113E-16   0.745E-16 -.665E-15 0.998E-14
 -----------------------------------------------------------------------------------------------
   -.681E-13 -.111E-12 0.854E-12   0.729E-14 -.101E-15 0.629E-16   0.590E-16 0.694E-17 0.486E-16   0.188E-14 -.131E-14 0.765E-14
 
 
 POSITION                                       TOTAL-FORCE (eV/Angst)
 -----------------------------------------------------------------------------------
     -0.00000     -0.00000      0.00000         0.000000     -0.000000      0.000000
     -0.00000      2.77231      2.77231        -0.000000      0.000000      0.000000
      2.77231     -0.00000      2.77231        -0.000000      0.000000     -0.000000
      2.77231      2.77231      0.00000         0.000000     -0.000000      0.000000
      1.38616      1.38616      1.38616        -0.000000      0.000000     -0.000000
      4.15847      4.15847      1.38616        -0.000000      0.000000     -0.000000
      4.15847      1.38616      4.15847         0.000000     -0.000000     -0.000000
      1.38616      4.15847      4.15847         0.000000     -0.000000     -0.000000
 -----------------------------------------------------------------------------------
    total drift:                               -0.000000     -0.000000      0.000000


--------------------------------------------------------------------------------------------------------



  FREE ENERGIE OF THE ION-ELECTRON SYSTEM (eV)
  ---------------------------------------------------
  free  energy   TOTEN  =       -43.20186403 eV

  energy  without entropy=      -43.20186403  energy(sigma->0) =      -43.20186403
 
 d Force = 0.0000000E+00[ 0.000E+00, 0.000E+00]  d Energy =-0.6741820E-01 0.674E-01
 d Force = 0.0000000E+00[ 0.000E+00, 0.000E+00]  d Ewald  =-0.1873279E+02 0.187E+02


--------------------------------------------------------------------------------------------------------


    POTLOK:  cpu time    0.0054: real time    0.0054


--------------------------------------------------------------------------------------------------------


 Steepest descent step on ions:
 trial-energy change:    0.067418  1 .order    0.063818   -0.108885    0.236521
  (g-gl).g = 0.109E+00      g.g   = 0.109E+00  gl.gl    = 0.000E+00
 g(Force)  = 0.265E-59   g(Stress)= 0.109E+00 ortho     = 0.000E+00
 gamma     =   0.00000
 trial     =   1.00000
 opt step  =   0.30205  (harmonic =   0.31524) maximal distance =0.00000000
 next E    =   -43.285627   (d E  =  -0.01635)


--------------------------------------------------------------------------------------------------------


    WAVPRE:  cpu time    0.0006: real time    0.0007
 FEWALD executed in parallel
    FEWALD:  cpu time    0.0002: real time    0.0002
    GENKIN:  cpu time    0.0006: real time    0.0006
    ORTHCH:  cpu time    0.0012: real time    0.0012
     LOOP+:  cpu time    0.2972: real time    0.3279


----------------------------------------- Iteration    3(   1)  ---------------------------------------


    POTLOK:  cpu time    0.0038: real time    0.0038
    SETDIJ:  cpu time    0.0011: real time    0.0011
     EDDAV:  cpu time    0.0313: real time    0.0315
       DOS:  cpu time    0.0001: real time    0.0001
    --------------------------------------------
      LOOP:  cpu time    0.0369: real time    0.0379

 eigenvalue-minimisations  :   230
 total energy-change (2. order) :-0.1222743E+00  (-0.1316045E+00)
 number of electron      31.9999984 magnetization 
 augmentation part       -1.8228736 magnetization 

 Free energy of the ion-electron system (eV)
  ---------------------------------------------------
  alpha Z        PSCENC =        13.19736548
  Ewald energy   TEWEN  =      -908.34539088
  -Hartree energ DENC   =       -63.59419803
  -exchange      EXHF   =         0.00000000
  -V(xc)+E(xc)   XCENC  =       -72.10525388
  PAW double counting   =      3810.93951265    -3670.91551103
  entropy T*S    EENTRO =        -0.00000000
  eigenvalues    EBANDS =        23.01306426
  atomic energy  EATOM  =       824.48621262
  Solvation  Ediel_sol  =         0.00000000
  ---------------------------------------------------
  free energy    TOTEN  =       -43.32419882 eV

  energy without entropy =      -43.32419882  energy(sigma->0) =      -43.32419882


--------------------------------------------------------------------------------------------------------




----------------------------------------- Iteration    3(   2)  ---------------------------------------


     EDDAV:  cpu time    0.0424: real time    0.0427
       DOS:  cpu time    0.0001: real time    0.0001
    --------------------------------------------
      LOOP:  cpu time    0.0428: real time    0.0454

 eigenvalue-minimisations  :   235
 total energy-change (2. order) :-0.3562904E-02  (-0.3562897E-02)
 number of electron      31.9999984 magnetization 
 augmentation part       -1.8228736 magnetization 

 Free energy of the ion-electron system (eV)
  ---------------------------------------------------
  alpha Z        PSCENC =        13.19736548
  Ewald energy   TEWEN  =      -908.34539088
  -Hartree energ DENC   =       -63.59419803
  -exchange      EXHF   =         0.00000000
  -V(xc)+E(xc)   XCENC  =       -72.10525388
  PAW double counting   =      3810.93951265    -3670.91551103
  entropy T*S    EENTRO =        -0.00000000
  eigenvalues    EBANDS =        23.00950135
  atomic energy  EATOM  =       824.48621262
  Solvation  Ediel_sol  =         0.00000000
  ---------------------------------------------------
  free energy    TOTEN  =       -43.32776172 eV

  energy without entropy =      -43.32776172  energy(sigma->0) =      -43.32776172


--------------------------------------------------------------------------------------------------------




----------------------------------------- Iteration    3(   3)  ---------------------------------------


     EDDAV:  cpu time    0.0380: real time    0.0382
       DOS:  cpu time    0.0001: real time    0.0001
    CHARGE:  cpu time    0.0055: real time    0.0055
    MIXING:  cpu time    0.0005: real time    0.0005
    --------------------------------------------
      LOOP:  cpu time    0.0448: real time    0.0476

 eigenvalue-minimisations  :   225
 total energy-change (2. order) :-0.2115462E-04  (-0.2115483E-04)
 number of electron      31.9999961 magnetization 
 augmentation part       -1.8081329 magnetization 

 Broyden mixing:
  rms(total) = 0.13040E+00    rms(broyden)= 0.13029E+00
  rms(prec ) = 0.21010E+00
  weight for this iteration     100.00

 Free energy of the ion-electron system (eV)
  ---------------------------------------------------
  alpha Z        PSCENC =        13.19736548
  Ewald energy   TEWEN  =      -908.34539088
  -Hartree energ DENC   =       -63.59419803
  -exchange      EXHF   =         0.00000000
  -V(xc)+E(xc)   XCENC  =       -72.10525388
  PAW double counting   =      3810.93951265    -3670.91551103
  entropy T*S    EENTRO =        -0.00000000
  eigenvalues    EBANDS =        23.00948020
  atomic energy  EATOM  =       824.48621262
  Solvation  Ediel_sol  =         0.00000000
  ---------------------------------------------------
  free energy    TOTEN  =       -43.32778288 eV

  energy without entropy =      -43.32778288  energy(sigma->0) =      -43.32778288


--------------------------------------------------------------------------------------------------------




----------------------------------------- Iteration    3(   4)  ---------------------------------------


    POTLOK:  cpu time    0.0047: real time    0.0047
    SETDIJ:  cpu time    0.0020: real time    0.0020
     EDDAV:  cpu time    0.0303: real time    0.0303
       DOS:  cpu time    0.0001: real time    0.0001
    CHARGE:  cpu time    0.0049: real time    0.0049
    MIXING:  cpu time    0.0005: real time    0.0005
    --------------------------------------------
      LOOP:  cpu time    0.0429: real time    0.0457

 eigenvalue-minimisations  :   200
 total energy-change (2. order) : 0.2862105E-01  (-0.1358153E-02)
 number of electron      31.9999961 magnetization 
 augmentation part       -1.8152441 magnetization 

 Broyden mixing:
  rms(total) = 0.63396E-01    rms(broyden)= 0.63389E-01
  rms(prec ) = 0.11358E+00
  weight for this iteration     100.00

 eigenvalues of (default mixing * dielectric matrix)
  average eigenvalue GAMMA=   1.8591
  1.8591

 Free energy of the ion-electron system (eV)
  ---------------------------------------------------
  alpha Z        PSCENC =        13.19736548
  Ewald energy   TEWEN  =      -908.34539088
  -Hartree energ DENC   =       -62.26478302
  -exchange      EXHF   =         0.00000000
  -V(xc)+E(xc)   XCENC  =       -72.14331754
  PAW double counting   =      4002.87272635    -3862.88061829
  entropy T*S    EENTRO =        -0.00000000
  eigenvalues    EBANDS =        21.77864345
  atomic energy  EATOM  =       824.48621262
  Solvation  Ediel_sol  =         0.00000000
  ---------------------------------------------------
  free energy    TOTEN  =       -43.29916183 eV

  energy without entropy =      -43.29916183  energy(sigma->0) =      -43.29916183


--------------------------------------------------------------------------------------------------------




----------------------------------------- Iteration    3(   5)  ---------------------------------------


    POTLOK:  cpu time    0.0038: real time    0.0038
    SETDIJ:  cpu time    0.0011: real time    0.0012
     EDDAV:  cpu time    0.0303: real time    0.0306
       DOS:  cpu time    0.0001: real time    0.0001
    CHARGE:  cpu time    0.0048: real time    0.0049
    MIXING:  cpu time    0.0005: real time    0.0005
    --------------------------------------------
      LOOP:  cpu time    0.0411: real time    0.0440

 eigenvalue-minimisations  :   215
 total energy-change (2. order) : 0.1384844E-01  (-0.2013833E-02)
 number of electron      31.9999961 magnetization 
 augmentation part       -1.8246528 magnetization 

 Broyden mixing:
  rms(total) = 0.23057E-01    rms(broyden)= 0.23057E-01
  rms(prec ) = 0.25622E-01
  weight for this iteration     100.00

 eigenvalues of (default mixing * dielectric matrix)
  average eigenvalue GAMMA=   2.9290
  2.6021  3.2559

 Free energy of the ion-electron system (eV)
  ---------------------------------------------------
  alpha Z        PSCENC =        13.19736548
  Ewald energy   TEWEN  =      -908.34539088
  -Hartree energ DENC   =       -60.72450371
  -exchange      EXHF   =         0.00000000
  -V(xc)+E(xc)   XCENC  =       -72.17610657
  PAW double counting   =      4189.53671304    -4049.60678496
  entropy T*S    EENTRO =        -0.00000000
  eigenvalues    EBANDS =        20.34718157
  atomic energy  EATOM  =       824.48621262
  Solvation  Ediel_sol  =         0.00000000
  ---------------------------------------------------
  free energy    TOTEN  =       -43.28531339 eV

  energy without entropy =      -43.28531339  energy(sigma->0) =      -43.28531339


--------------------------------------------------------------------------------------------------------




----------------------------------------- Iteration    3(   6)  ---------------------------------------


    POTLOK:  cpu time    0.0038: real time    0.0038
    SETDIJ:  cpu time    0.0012: real time    0.0012
     EDDAV:  cpu time    0.0305: real time    0.0306
       DOS:  cpu time    0.0001: real time    0.0001
    CHARGE:  cpu time    0.0048: real time    0.0049
    MIXING:  cpu time    0.0005: real time    0.0005
    --------------------------------------------
      LOOP:  cpu time    0.0412: real time    0.0445

 eigenvalue-minimisations  :   220
 total energy-change (2. order) : 0.1141192E-04  (-0.1022155E-03)
 number of electron      31.9999961 magnetization 
 augmentation part       -1.8257314 magnetization 

 Broyden mixing:
  rms(total) = 0.10258E-01    rms(broyden)= 0.10258E-01
  rms(prec ) = 0.11230E-01
  weight for this iteration     100.00

 eigenvalues of (default mixing * dielectric matrix)
  average eigenvalue GAMMA=   2.0955
  2.6331  1.8267  1.8267

 Free energy of the ion-electron system (eV)
  ---------------------------------------------------
  alpha Z        PSCENC =        13.19736548
  Ewald energy   TEWEN  =      -908.34539088
  -Hartree energ DENC   =       -60.67209449
  -exchange      EXHF   =         0.00000000
  -V(xc)+E(xc)   XCENC  =       -72.14591927
  PAW double counting   =      4044.95099207    -3905.08418941
  entropy T*S    EENTRO =        -0.00000000
  eigenvalues    EBANDS =        20.32772190
  atomic energy  EATOM  =       824.48621262
  Solvation  Ediel_sol  =         0.00000000
  ---------------------------------------------------
  free energy    TOTEN  =       -43.28530198 eV

  energy without entropy =      -43.28530198  energy(sigma->0) =      -43.28530198


--------------------------------------------------------------------------------------------------------




----------------------------------------- Iteration    3(   7)  ---------------------------------------


    POTLOK:  cpu time    0.0038: real time    0.0038
    SETDIJ:  cpu time    0.0012: real time    0.0012
     EDDAV:  cpu time    0.0231: real time    0.0233
       DOS:  cpu time    0.0001: real time    0.0001
    --------------------------------------------
      LOOP:  cpu time    0.0285: real time    0.0317

 eigenvalue-minimisations  :   130
 total energy-change (2. order) : 0.6340261E-04  (-0.9024910E-05)
 number of electron      31.9999961 magnetization 
 augmentation part       -1.8257314 magnetization 

 Free energy of the ion-electron system (eV)
  ---------------------------------------------------
  alpha Z        PSCENC =        13.19736548
  Ewald energy   TEWEN  =      -908.34539088
  -Hartree energ DENC   =       -60.58348942
  -exchange      EXHF   =         0.00000000
  -V(xc)+E(xc)   XCENC  =       -72.15861437
  PAW double counting   =      4095.62738245    -3955.74341287
  entropy T*S    EENTRO =        -0.00000000
  eigenvalues    EBANDS =        20.23470841
  atomic energy  EATOM  =       824.48621262
  Solvation  Ediel_sol  =         0.00000000
  ---------------------------------------------------
  free energy    TOTEN  =       -43.28523858 eV

  energy without entropy =      -43.28523858  energy(sigma->0) =      -43.28523858


--------------------------------------------------------------------------------------------------------




 average (electrostatic) potential at core
  the test charge radii are     0.9892
  (the norm of the test charge is              1.0000)
       1 -83.4645       2 -83.4645       3 -83.4645       4 -83.4645       5 -83.4645
       6 -83.4645       7 -83.4645       8 -83.4645
 
 
 
 E-fermi :   5.8056     XC(G=0):  -9.3346     alpha+bet :-11.7537


 k-point     1 :       0.1250    0.1250    0.1250
  band No.  band energies     occupation 
      1      -5.9914      2.00000
      2      -2.9558      2.00000
      3      -2.9558      2.00000
      4      -2.9558      2.00000
      5      -1.1461      2.00000
      6      -1.1461      2.00000
      7      -1.1461      2.00000
      8       2.2736      2.00000
      9       2.2736      2.00000
     10       2.2736      2.00000
     11       3.0055      2.00000
     12       3.0055      2.00000
     13       3.0055      2.00000
     14       4.0522      2.00000
     15       5.3633      2.00000
     16       5.3633      2.00000
     17       6.5835      0.00000
     18       6.5835      0.00000
     19       6.5835      0.00000
     20       7.6411      0.00000
     21       7.6411      0.00000
     22       7.6411      0.00000
     23       8.0957      0.00000
     24       8.6250      0.00000
     25       8.6250      0.00000

 k-point     2 :       0.3750    0.1250    0.1250
  band No.  band energies     occupation 
      1      -5.4629      2.00000
      2      -4.4298      2.00000
      3      -2.7874      2.00000
      4      -2.7874      2.00000
      5      -1.2438      2.00000
      6      -1.2438      2.00000
      7       0.7213      2.00000
      8       1.6621      2.00000
      9       1.6621      2.00000
     10       2.4333      2.00000
     11       2.7412      2.00000
     12       2.7412      2.00000
     13       3.0204      2.00000
     14       3.4740      2.00000
     15       4.3507      2.00000
     16       4.4165      2.00000
     17       7.0230      0.00000
     18       7.7977      0.00000
     19       8.0525      0.00000
     20       8.0525      0.00000
     21       8.5629      0.00000
     22       9.2822      0.00000
     23       9.9341      0.00000
     24       9.9341      0.00000
     25      10.0896      0.00000

 k-point     3 :       0.3750    0.3750    0.1250
  band No.  band energies     occupation 
      1      -4.9634      2.00000
      2      -4.0137      2.00000
      3      -4.0137      2.00000
      4      -3.3252      2.00000
      5      -0.9424      2.00000
      6      -0.1547      2.00000
      7      -0.1547      2.00000
      8       1.0537      2.00000
      9       1.7211      2.00000
     10       2.3775      2.00000
     11       2.3775      2.00000
     12       3.3708      2.00000
     13       3.7495      2.00000
     14       3.7495      2.00000
     15       3.7878      2.00000
     16       4.8803      2.00000
     17       7.5107      0.00000
     18       8.3128      0.00000
     19       8.5224      0.00000
     20       8.5224      0.00000
     21       9.1918      0.00000
     22       9.1918      0.00000
     23       9.3171      0.00000
     24       9.4998      0.00000
     25      10.6436      0.00000

 k-point     4 :       0.3750    0.3750    0.3750
  band No.  band energies     occupation 
      1      -4.5297      2.00000
      2      -3.8217      2.00000
      3      -3.8217      2.00000
      4      -3.8217      2.00000
      5      -1.0295      2.00000
      6      -1.0295      2.00000
      7      -1.0295      2.00000
      8      -0.2396      2.00000
      9       3.3921      2.00000
     10       3.3921      2.00000
     11       3.3921      2.00000
     12       4.1063      2.00000
     13       4.1063      2.00000
     14       4.1063      2.00000
     15       4.5723      2.00000
     16       4.5723      2.00000
     17       7.2510      0.00000
     18       7.8202      0.00000
     19       7.8202      0.00000
     20       7.8202      0.00000
     21       9.1147      0.00000
     22       9.1147      0.00000
     23       9.1501      0.00000
     24       9.1501      0.00000
     25       9.1501      0.00000


--------------------------------------------------------------------------------------------------------


 soft charge-density along one line, spin component           1
         0         1         2         3         4         5         6         7         8         9
 total charge-density along one line
 
 pseudopotential strength for first ion, spin component:           1
 18.438  25.724  -0.000   0.000  -0.000  -0.000   0.000  -0.000
 25.724  35.894  -0.000   0.000  -0.000  -0.000   0.000  -0.000
 -0.000  -0.000   4.181   0.000   0.000   7.792   0.000   0.000
  0.000   0.000   0.000   4.181  -0.000   0.000   7.792  -0.000
 -0.000  -0.000   0.000  -0.000   4.181   0.000  -0.000   7.792
 -0.000  -0.000   7.792   0.000   0.000  14.530   0.000   0.000
  0.000   0.000   0.000   7.792  -0.000   0.000  14.530  -0.000
 -0.000  -0.000   0.000  -0.000   7.792   0.000  -0.000  14.530
 total augmentation occupancy for first ion, spin component:           1
  6.048  -2.338   0.000  -0.000  -0.000  -0.000   0.000   0.000
 -2.338   1.011   0.000  -0.000  -0.000   0.000   0.000   0.000
  0.000   0.000   3.395  -0.000  -0.000  -0.838   0.000   0.000
  0.000  -0.000  -0.000   3.395   0.000   0.000  -0.838  -0.000
 -0.000  -0.000  -0.000   0.000   3.395   0.000  -0.000  -0.838
 -0.000  -0.000  -0.838   0.000   0.000   0.214  -0.000  -0.000
  0.000  -0.000   0.000  -0.838  -0.000  -0.000   0.214   0.000
  0.000  -0.000   0.000  -0.000  -0.838  -0.000   0.000   0.214


------------------------ aborting loop because EDIFF is reached ----------------------------------------


    CHARGE:  cpu time    0.0048: real time    0.0048
    FORLOC:  cpu time    0.0003: real time    0.0003
    FORNL :  cpu time    0.0033: real time    0.0033
    STRESS:  cpu time    0.0075: real time    0.0075
    FORCOR:  cpu time    0.0038: real time    0.0038
    FORHAR:  cpu time    0.0011: real time    0.0011
    MIXING:  cpu time    0.0005: real time    0.0005
    OFIELD:  cpu time    0.0000: real time    0.0000

  FORCE on cell =-STRESS in cart. coord.  units (eV):
  Direction    XX          YY          ZZ          XY          YZ          ZX
  --------------------------------------------------------------------------------------
  Alpha Z    13.19737    13.19737    13.19737
  Ewald    -302.78231  -302.78231  -302.78231     0.00000     0.00000     0.00000
  Hartree    20.19632    20.19632    20.19632    -0.00000    -0.00000    -0.00000
  E(xc)    -101.11908  -101.11908  -101.11908    -0.00000    -0.00000    -0.00000
  Local    -118.53446  -118.53446  -118.53446     0.00000    -0.00000     0.00000
  n-local   310.59722   313.21452   307.95864    -3.40545    -2.83924    -2.53568
  augment   -46.39865   -46.39865   -46.39865     0.00000    -0.00000    -0.00000
  Kinetic   218.76028   228.58839   227.13997    -4.57794    -6.31287    -4.06881
  Fock        0.00000     0.00000     0.00000     0.00000     0.00000     0.00000
  -------------------------------------------------------------------------------------
  Total      -0.02115    -0.02115    -0.02115    -0.00000    -0.00000    -0.00000
  in kB      -0.20753    -0.20753    -0.20753    -0.00000    -0.00000    -0.00000
  external pressure =       -0.21 kB  Pullay stress =        0.00 kB


 VOLUME and BASIS-vectors are now :
 -----------------------------------------------------------------------------
  energy-cutoff  :      240.00
  volume of cell :      163.25
      direct lattice vectors                 reciprocal lattice vectors
     5.465321880 -0.000000000  0.000000000     0.182971840  0.000000000  0.000000000
    -0.000000000  5.465321880  0.000000000     0.000000000  0.182971840  0.000000000
     0.000000000 -0.000000000  5.465321880    -0.000000000 -0.000000000  0.182971840

  length of vectors
     5.465321880  5.465321880  5.465321880     0.182971840  0.182971840  0.182971840


 FORCES acting on ions
    electron-ion (+dipol)            ewald-force                    non-local-force                 convergence-correction
 -----------------------------------------------------------------------------------------------
   -.886E-14 -.351E-15 -.441E-15   -.355E-14 0.000E+00 0.000E+00   -.199E-16 -.520E-17 0.104E-16   0.437E-14 -.990E-15 0.404E-14
   -.872E-14 -.138E-13 -.140E-13   -.355E-14 0.000E+00 0.355E-14   -.633E-16 -.113E-16 0.208E-16   0.420E-14 -.478E-15 -.976E-15
   -.145E-13 0.686E-15 0.346E-12   -.355E-14 0.000E+00 0.355E-14   -.103E-15 -.182E-16 0.694E-16   -.628E-14 -.141E-14 -.122E-14
   -.128E-13 0.129E-12 0.175E-12   -.355E-14 0.000E+00 0.000E+00   0.113E-16 0.364E-16 -.104E-16   -.603E-14 -.182E-15 0.381E-14
   -.126E-13 0.116E-12 -.820E-14   -.676E-15 -.113E-14 -.355E-14   0.199E-16 -.373E-16 0.173E-16   0.230E-14 0.428E-14 -.669E-14
   -.138E-13 -.320E-12 0.392E-12   0.619E-14 -.500E-16 -.355E-14   -.434E-17 0.182E-16 0.347E-17   0.269E-14 0.478E-14 -.670E-14
   -.182E-13 -.101E-12 0.140E-12   0.151E-14 0.134E-15 -.348E-14   0.659E-16 0.182E-16 -.312E-16   0.306E-14 0.478E-14 0.851E-14
   -.118E-13 0.784E-13 -.166E-13   -.305E-16 0.121E-14 -.349E-14   0.937E-16 -.955E-17 -.763E-16   0.267E-14 0.473E-14 0.848E-14
 -----------------------------------------------------------------------------------------------
   -.101E-12 -.112E-12 0.101E-11   -.722E-14 0.169E-15 -.697E-14   -.188E-26 -.867E-17 0.347E-17   0.699E-14 0.155E-13 0.924E-14
 
 
 POSITION                                       TOTAL-FORCE (eV/Angst)
 -----------------------------------------------------------------------------------
     -0.00000     -0.00000      0.00000         0.000000     -0.000000      0.000000
     -0.00000      2.73266      2.73266         0.000000      0.000000     -0.000000
      2.73266     -0.00000      2.73266        -0.000000      0.000000     -0.000000
      2.73266      2.73266      0.00000         0.000000     -0.000000      0.000000
      1.36633      1.36633      1.36633        -0.000000      0.000000     -0.000000
      4.09899      4.09899      1.36633         0.000000      0.000000     -0.000000
      4.09899      1.36633      4.09899        -0.000000     -0.000000      0.000000
      1.36633      4.09899      4.09899        -0.000000     -0.000000      0.000000
 -----------------------------------------------------------------------------------
    total drift:                               -0.000000     -0.000000      0.000000


--------------------------------------------------------------------------------------------------------



  FREE ENERGIE OF THE ION-ELECTRON SYSTEM (eV)
  ---------------------------------------------------
  free  energy   TOTEN  =       -43.28523858 eV

  energy  without entropy=      -43.28523858  energy(sigma->0) =      -43.28523858
 
 d Force = 0.0000000E+00[ 0.000E+00, 0.000E+00]  d Energy = 0.8337455E-01-0.834E-01
 d Force = 0.0000000E+00[ 0.000E+00, 0.000E+00]  d Ewald  = 0.1299239E+02-0.130E+02


--------------------------------------------------------------------------------------------------------


    POTLOK:  cpu time    0.0052: real time    0.0052


--------------------------------------------------------------------------------------------------------




--------------------------------------------------------------------------------------------------------


  
 reached required accuracy - stopping structural energy minimisation
 writing wavefunctions
     LOOP+:  cpu time    0.3149: real time    0.3478
    4ORBIT:  cpu time    0.0000: real time    0.0000

 total amount of memory used by VASP on root node    30701. kBytes
========================================================================

   base      :      30000. kBytes
   nonl-proj :         67. kBytes
   fftplans  :        243. kBytes
   grid      :        329. kBytes
   one-center:          3. kBytes
   wavefun   :         59. kBytes
 
  
  
 General timing and accounting informations for this job:
 ========================================================
  
                  Total CPU time used (sec):        2.327
                            User time (sec):        1.910
                          System time (sec):        0.417
                         Elapsed time (sec):        2.974
  
                   Maximum memory used (kb):      125784.
                   Average memory used (kb):           0.
  
                          Minor page faults:        17458
                          Major page faults:            0
                 Voluntary context switches:         1658
