<?xml version="1.0" encoding="ISO-8859-1"?>
<modeling>
 <generator>
  <i name="program" type="string">vasp </i>
  <i name="version" type="string">5.4.1  </i>
  <i name="subversion" type="string">05Feb16 (build Feb 24 2020 14:33:01) complex                          parallel </i>
  <i name="platform" type="string">IFC91_ompi </i>
  <i name="date" type="string">2020 02 27 </i>
  <i name="time" type="string">21:42:35 </i>
 </generator>
 <incar>
  <i type="string" name="SYSTEM"> diamond Si</i>
  <i type="int" name="ISTART">     0</i>
  <i type="string" name="PREC">accurate</i>
  <i type="int" name="NSIM">     4</i>
  <i type="int" name="ICHARG">     2</i>
  <i type="int" name="NELM">    60</i>
  <i type="int" name="NELMDL">     3</i>
  <i type="int" name="NELMIN">     0</i>
  <i type="int" name="IBRION">     2</i>
  <i name="EDIFF">      0.00010000</i>
  <i name="EDIFFG">     -0.01000000</i>
  <i type="int" name="NSW">     9</i>
  <i type="int" name="ISIF">     3</i>
  <i name="ENCUT">    240.00000000</i>
  <i name="POTIM">      1.00000000</i>
  <i type="logical" name="LPLANE"> F  </i>
  <i type="int" name="ISMEAR">     0</i>
  <i name="SIGMA">      0.10000000</i>
  <v type="int" name="KPOINT_BSE">    -1     0     0     0</v>
  <i type="int" name="NELM">    60</i>
 </incar>
 <kpoints>
  <generation param="Monkhorst-Pack">
   <v type="int" name="divisions">       4        4        4 </v>
   <v name="usershift">      0.00000000       0.00000000       0.00000000 </v>
   <v name="genvec1">      0.25000000       0.00000000       0.00000000 </v>
   <v name="genvec2">      0.00000000       0.25000000       0.00000000 </v>
   <v name="genvec3">      0.00000000       0.00000000       0.25000000 </v>
   <v name="shift">      0.50000000       0.50000000       0.50000000 </v>
  </generation>
  <varray name="kpointlist" >
   <v>       0.12500000       0.12500000       0.12500000 </v>
   <v>       0.37500000       0.12500000       0.12500000 </v>
   <v>       0.37500000       0.37500000       0.12500000 </v>
   <v>       0.37500000       0.37500000       0.37500000 </v>
  </varray>
  <varray name="weights" >
   <v>       0.12500000 </v>
   <v>       0.37500000 </v>
   <v>       0.37500000 </v>
   <v>       0.12500000 </v>
  </varray>
 </kpoints>
 <parameters>
  <separator name="general" >
   <i type="string" name="SYSTEM">diamond Si</i>
   <i type="logical" name="LCOMPAT"> F  </i>
  </separator>
  <separator name="electronic" >
   <i type="string" name="PREC">accura</i>
   <i name="ENMAX">    240.00000000</i>
   <i name="ENAUG">    322.06900000</i>
   <i name="EDIFF">      0.00010000</i>
   <i type="int" name="IALGO">    38</i>
   <i type="int" name="IWAVPR">    11</i>
   <i type="int" name="NBANDS">    25</i>
   <i name="NELECT">     32.00000000</i>
   <i type="int" name="TURBO">     0</i>
   <i type="int" name="IRESTART">     0</i>
   <i type="int" name="NREBOOT">     0</i>
   <i type="int" name="NMIN">     0</i>
   <i name="EREF">      0.00000000</i>
   <separator name="electronic smearing" >
    <i type="int" name="ISMEAR">     0</i>
    <i name="SIGMA">      0.10000000</i>
    <i name="KSPACING">      0.50000000</i>
    <i type="logical" name="KGAMMA"> T  </i>
   </separator>
   <separator name="electronic projectors" >
    <i type="logical" name="LREAL"> F  </i>
    <v name="ROPT">      0.00000000</v>
    <i type="int" name="LMAXPAW">  -100</i>
    <i type="int" name="LMAXMIX">     2</i>
    <i type="logical" name="NLSPLINE"> F  </i>
   </separator>
   <separator name="electronic startup" >
    <i type="int" name="ISTART">     0</i>
    <i type="int" name="ICHARG">     2</i>
    <i type="int" name="INIWAV">     1</i>
   </separator>
   <separator name="electronic spin" >
    <i type="int" name="ISPIN">     1</i>
    <i type="logical" name="LNONCOLLINEAR"> F  </i>
    <v name="MAGMOM">      1.00000000      1.00000000      1.00000000      1.00000000      1.00000000      1.00000000      1.00000000      1.00000000</v>
    <i name="NUPDOWN">     -1.00000000</i>
    <i type="logical" name="LSORBIT"> F  </i>
    <v name="SAXIS">      0.00000000      0.00000000      1.00000000</v>
    <i type="logical" name="LSPIRAL"> F  </i>
    <v name="QSPIRAL">      0.00000000      0.00000000      0.00000000</v>
    <i type="logical" name="LZEROZ"> F  </i>
   </separator>
   <separator name="electronic exchange-correlation" >
    <i type="logical" name="LASPH"> F  </i>
    <i type="logical" name="LMETAGGA"> F  </i>
   </separator>
   <separator name="electronic convergence" >
    <i type="int" name="NELM">    60</i>
    <i type="int" name="NELMDL">     3</i>
    <i type="int" name="NELMIN">     0</i>
    <i name="ENINI">    240.00000000</i>
    <separator name="electronic convergence detail" >
     <i type="logical" name="LDIAG"> T  </i>
     <i type="logical" name="LSUBROT"> F  </i>
     <i name="WEIMIN">      0.00100000</i>
     <i name="EBREAK">      0.00000100</i>
     <i name="DEPER">      0.30000000</i>
     <i type="int" name="NRMM">     4</i>
     <i name="TIME">      0.40000000</i>
    </separator>
   </separator>
   <separator name="electronic mixer" >
    <i name="AMIX">      0.40000000</i>
    <i name="BMIX">      1.00000000</i>
    <i name="AMIN">      0.10000000</i>
    <i name="AMIX_MAG">      1.60000000</i>
    <i name="BMIX_MAG">      1.00000000</i>
    <separator name="electronic mixer details" >
     <i type="int" name="IMIX">     4</i>
     <i type="logical" name="MIXFIRST"> F  </i>
     <i type="int" name="MAXMIX">   -45</i>
     <i name="WC">    100.00000000</i>
     <i type="int" name="INIMIX">     1</i>
     <i type="int" name="MIXPRE">     1</i>
     <i type="int" name="MREMOVE">     5</i>
    </separator>
   </separator>
   <separator name="electronic dipolcorrection" >
    <i type="logical" name="LDIPOL"> F  </i>
    <i type="logical" name="LMONO"> F  </i>
    <i type="int" name="IDIPOL">     0</i>
    <i name="EPSILON">      1.00000000</i>
    <v name="DIPOL">   -100.00000000   -100.00000000   -100.00000000</v>
    <i name="EFIELD">      0.00000000</i>
   </separator>
  </separator>
  <separator name="grids" >
   <i type="int" name="NGX">    28</i>
   <i type="int" name="NGY">    28</i>
   <i type="int" name="NGZ">    28</i>
   <i type="int" name="NGXF">    56</i>
   <i type="int" name="NGYF">    56</i>
   <i type="int" name="NGZF">    56</i>
   <i type="logical" name="ADDGRID"> F  </i>
  </separator>
  <separator name="ionic" >
   <i type="int" name="NSW">     9</i>
   <i type="int" name="IBRION">     2</i>
   <i type="int" name="ISIF">     3</i>
   <i name="PSTRESS">      0.00000000</i>
   <i name="EDIFFG">     -0.01000000</i>
   <i type="int" name="NFREE">     1</i>
   <i name="POTIM">      1.00000000</i>
   <i name="SMASS">     -3.00000000</i>
   <i name="SCALEE">      1.00000000</i>
  </separator>
  <separator name="ionic md" >
   <i name="TEBEG">      0.00010000</i>
   <i name="TEEND">      0.00010000</i>
   <i type="int" name="NBLOCK">     1</i>
   <i type="int" name="KBLOCK">     9</i>
   <i type="int" name="NPACO">   256</i>
   <i name="APACO">     16.00000000</i>
  </separator>
  <separator name="symmetry" >
   <i type="int" name="ISYM">     2</i>
   <i name="SYMPREC">      0.00001000</i>
  </separator>
  <separator name="dos" >
   <i type="logical" name="LORBIT"> F  </i>
   <v name="RWIGS">     -1.00000000</v>
   <i type="int" name="NEDOS">   301</i>
   <i name="EMIN">     10.00000000</i>
   <i name="EMAX">    -10.00000000</i>
   <i name="EFERMI">      0.00000000</i>
  </separator>
  <separator name="writing" >
   <i type="int" name="NWRITE">     2</i>
   <i type="logical" name="LWAVE"> T  </i>
   <i type="logical" name="LCHARG"> T  </i>
   <i type="logical" name="LPARD"> F  </i>
   <i type="logical" name="LVTOT"> F  </i>
   <i type="logical" name="LVHAR"> F  </i>
   <i type="logical" name="LELF"> F  </i>
   <i type="logical" name="LOPTICS"> F  </i>
   <v name="STM">      0.00000000      0.00000000      0.00000000      0.00000000      0.00000000      0.00000000      0.00000000</v>
  </separator>
  <separator name="performance" >
   <i type="int" name="NPAR">     5</i>
   <i type="int" name="NSIM">     4</i>
   <i type="int" name="NBLK">    -1</i>
   <i type="logical" name="LPLANE"> F  </i>
   <i type="logical" name="LSCALAPACK"> T  </i>
   <i type="logical" name="LSCAAWARE"> F  </i>
   <i type="logical" name="LSCALU"> F  </i>
   <i type="logical" name="LASYNC"> F  </i>
   <i type="logical" name="LORBITALREAL"> F  </i>
  </separator>
  <separator name="miscellaneous" >
   <i type="int" name="IDIOT">     3</i>
   <i type="logical" name="LMUSIC"> F  </i>
   <v name="POMASS">     28.08500000</v>
   <v name="DARWINR">      0.00000000</v>
   <v name="DARWINV">      1.00000000</v>
   <i type="logical" name="LCORR"> T  </i>
  </separator>
  <i type="logical" name="GGA_COMPAT"> T  </i>
  <i type="logical" name="LBERRY"> F  </i>
  <i type="int" name="ICORELEVEL">     0</i>
  <i type="logical" name="LDAU"> F  </i>
  <i type="int" name="I_CONSTRAINED_M">     0</i>
  <separator name="electronic exchange-correlation" >
   <i type="string" name="GGA">--</i>
   <i type="int" name="VOSKOWN">     0</i>
   <i type="logical" name="LHFCALC"> F  </i>
   <i type="string" name="PRECFOCK"></i>
   <i type="logical" name="LSYMGRAD"> F  </i>
   <i type="logical" name="LHFONE"> F  </i>
   <i type="logical" name="LRHFCALC"> F  </i>
   <i type="logical" name="LTHOMAS"> F  </i>
   <i type="logical" name="LMODELHF"> F  </i>
   <i name="ENCUT4O">     -1.00000000</i>
   <i type="int" name="EXXOEP">     0</i>
   <i type="int" name="FOURORBIT">     0</i>
   <i name="AEXX">      0.00000000</i>
   <i name="HFALPHA">      0.00000000</i>
   <i name="MCALPHA">      0.00000000</i>
   <i name="ALDAX">      1.00000000</i>
   <i name="AGGAX">      1.00000000</i>
   <i name="ALDAC">      1.00000000</i>
   <i name="AGGAC">      1.00000000</i>
   <i type="int" name="NKREDX">     1</i>
   <i type="int" name="NKREDY">     1</i>
   <i type="int" name="NKREDZ">     1</i>
   <i type="logical" name="SHIFTRED"> F  </i>
   <i type="logical" name="ODDONLY"> F  </i>
   <i type="logical" name="EVENONLY"> F  </i>
   <i type="int" name="LMAXFOCK">     0</i>
   <i type="int" name="NMAXFOCKAE">     0</i>
   <i type="logical" name="LFOCKAEDFT"> F  </i>
   <i name="HFSCREEN">      0.00000000</i>
   <i name="HFSCREENC">      0.00000000</i>
   <i type="int" name="NBANDSGWLOW">     0</i>
  </separator>
  <separator name="vdW DFT" >
   <i type="logical" name="LUSE_VDW"> F  </i>
   <i name="Zab_VDW">     -0.84910000</i>
   <i name="PARAM1">      0.12340000</i>
   <i name="PARAM2">      1.00000000</i>
   <i name="PARAM3">      0.00000000</i>
  </separator>
  <separator name="model GW" >
   <i type="int" name="MODEL_GW">     0</i>
   <i name="MODEL_EPS0">     12.01436085</i>
   <i name="MODEL_ALPHA">      1.00000000</i>
  </separator>
  <separator name="linear response parameters" >
   <i type="logical" name="LEPSILON"> F  </i>
   <i type="logical" name="LRPA"> F  </i>
   <i type="logical" name="LNABLA"> F  </i>
   <i type="logical" name="LVEL"> F  </i>
   <i type="int" name="KINTER">     0</i>
   <i name="CSHIFT">      0.10000000</i>
   <i name="OMEGAMAX">     -1.00000000</i>
   <i name="DEG_THRESHOLD">      0.00200000</i>
  </separator>
  <separator name="orbital magnetization" >
   <i type="logical" name="NUCIND"> F  </i>
   <v name="MAGPOS">      0.00000000      0.00000000      0.00000000</v>
   <i type="logical" name="LNICSALL"> T  </i>
   <i type="logical" name="ORBITALMAG"> F  </i>
   <i type="logical" name="LMAGBLOCH"> F  </i>
   <i type="logical" name="LCHIMAG"> F  </i>
   <i type="logical" name="LGAUGE"> T  </i>
   <i type="int" name="MAGATOM">     0</i>
   <v name="MAGDIPOL">      0.00000000      0.00000000      0.00000000</v>
   <v name="AVECCONST">      0.00000000      0.00000000      0.00000000</v>
  </separator>
  <separator name="response functions" >
   <i type="logical" name="LADDER"> F  </i>
   <i type="logical" name="LFXC"> F  </i>
   <i type="logical" name="LHARTREE"> T  </i>
   <i type="int" name="IBSE">     0</i>
   <v type="int" name="KPOINT">    -1     0     0     0</v>
   <i type="logical" name="LTCTE"> F  </i>
   <i type="logical" name="LTETE"> F  </i>
   <i type="logical" name="LTRIPLET"> F  </i>
   <i type="logical" name="LFXCEPS"> F  </i>
   <i type="logical" name="LFXHEG"> F  </i>
   <i type="int" name="NATURALO">     0</i>
   <i type="logical" name="L2ORDER"> F  </i>
   <i type="logical" name="LUSEW"> F  </i>
   <i name="ENCUTGW">     -2.00000000</i>
   <i name="ENCUTGWSOFT">     -2.00000000</i>
   <i name="ENCUTLF">     -1.00000000</i>
   <i type="int" name="LMAXMP2">    -1</i>
   <i name="SCISSOR">      0.00000000</i>
   <i type="int" name="NOMEGA">     0</i>
   <i type="int" name="NOMEGAR">     0</i>
   <i type="int" name="NBANDSGW">    -1</i>
   <i type="int" name="NBANDSO">    -1</i>
   <i type="int" name="NBANDSV">    -1</i>
   <i type="int" name="NELM">    60</i>
   <i type="int" name="NELMHF">     1</i>
   <i type="int" name="DIM">     3</i>
   <i type="int" name="ANTIRES">     0</i>
   <i name="OMEGAMAX">    -30.00000000</i>
   <i name="OMEGAMIN">    -30.00000000</i>
   <i name="OMEGATL">   -200.00000000</i>
   <i type="int" name="OMEGAGRID">     0</i>
   <i name="CSHIFT">     -0.10000000</i>
   <i type="logical" name="SELFENERGY"> F  </i>
   <i type="logical" name="LSPECTRAL"> F  </i>
   <i type="logical" name="LSPECTRALGW"> F  </i>
   <i type="logical" name="LSINGLES"> F  </i>
   <i type="logical" name="LFERMIGW"> F  </i>
   <i type="logical" name="ODDONLYGW"> F  </i>
   <i type="logical" name="EVENONLYGW"> F  </i>
   <i type="int" name="NKREDLFX">     1</i>
   <i type="int" name="NKREDLFY">     1</i>
   <i type="int" name="NKREDLFZ">     1</i>
   <i type="int" name="MAXMEM">  1800</i>
   <i type="int" name="TELESCOPE">     0</i>
   <i type="int" name="TAUPAR">     1</i>
   <i type="int" name="OMEGAPAR">    -1</i>
   <i name="LAMBDA">      1.00000000</i>
  </separator>
  <separator name="External order field" >
   <i name="OFIELD_KAPPA">      0.00000000</i>
   <v name="OFIELD_K">      0.00000000      0.00000000      0.00000000</v>
   <i name="OFIELD_Q6_NEAR">      0.00000000</i>
   <i name="OFIELD_Q6_FAR">      0.00000000</i>
   <i name="OFIELD_A">      0.00000000</i>
  </separator>
 </parameters>
 <atominfo>
  <atoms>       8 </atoms>
  <types>       1 </types>
  <array name="atoms" >
   <dimension dim="1">ion</dimension>
   <field type="string">element</field>
   <field type="int">atomtype</field>
   <set>
    <rc><c>Si</c><c>   1</c></rc>
    <rc><c>Si</c><c>   1</c></rc>
    <rc><c>Si</c><c>   1</c></rc>
    <rc><c>Si</c><c>   1</c></rc>
    <rc><c>Si</c><c>   1</c></rc>
    <rc><c>Si</c><c>   1</c></rc>
    <rc><c>Si</c><c>   1</c></rc>
    <rc><c>Si</c><c>   1</c></rc>
   </set>
  </array>
  <array name="atomtypes" >
   <dimension dim="1">type</dimension>
   <field type="int">atomspertype</field>
   <field type="string">element</field>
   <field>mass</field>
   <field>valence</field>
   <field type="string">pseudopotential</field>
   <set>
    <rc><c>   8</c><c>Si</c><c>     28.08500000</c><c>      4.00000000</c><c>  PAW_PBE Si 05Jan2001                  </c></rc>
   </set>
  </array>
 </atominfo>
 <structure name="initialpos" >
  <crystal>
   <varray name="basis" >
    <v>       5.43100000       0.00000000       0.00000000 </v>
    <v>       0.00000000       5.43100000       0.00000000 </v>
    <v>       0.00000000       0.00000000       5.43100000 </v>
   </varray>
   <i name="volume">    160.19147799 </i>
   <varray name="rec_basis" >
    <v>       0.18412815       0.00000000       0.00000000 </v>
    <v>       0.00000000       0.18412815       0.00000000 </v>
    <v>       0.00000000       0.00000000       0.18412815 </v>
   </varray>
  </crystal>
  <varray name="positions" >
   <v>       0.00000000       0.00000000       0.00000000 </v>
   <v>       0.00000000       0.50000000       0.50000000 </v>
   <v>       0.50000000       0.00000000       0.50000000 </v>
   <v>       0.50000000       0.50000000       0.00000000 </v>
   <v>       0.25000000       0.25000000       0.25000000 </v>
   <v>       0.75000000       0.75000000       0.25000000 </v>
   <v>       0.75000000       0.25000000       0.75000000 </v>
   <v>       0.25000000       0.75000000       0.75000000 </v>
  </varray>
 </structure>
 <calculation>
  <scstep>
   <time name="dav">    0.22    0.23</time>
   <time name="total">    0.23    0.24</time>
   <energy>
    <i name="alphaZ">     13.44915721 </i>
    <i name="ewald">   -914.08579262 </i>
    <i name="hartreedc">    -44.03749844 </i>
    <i name="XCdc">    -74.41614067 </i>
    <i name="pawpsdc">    704.99039692 </i>
    <i name="pawaedc">   -564.24414232 </i>
    <i name="eentropy">     -0.02160333 </i>
    <i name="bandstr">     88.56974292 </i>
    <i name="atom">    824.48621262 </i>
    <i name="e_fr_energy">     34.69033229 </i>
    <i name="e_wo_entrp">     34.71193563 </i>
    <i name="e_0_energy">     34.70113396 </i>
   </energy>
  </scstep>
  <scstep>
   <time name="dav">    0.04    0.04</time>
   <time name="total">    0.04    0.05</time>
   <energy>
    <i name="e_fr_energy">    -41.24576449 </i>
    <i name="e_wo_entrp">    -41.24576449 </i>
    <i name="e_0_energy">    -41.24576449 </i>
   </energy>
  </scstep>
  <scstep>
   <time name="dav">    0.04    0.04</time>
   <time name="total">    0.04    0.05</time>
   <energy>
    <i name="e_fr_energy">    -43.96242146 </i>
    <i name="e_wo_entrp">    -43.96242146 </i>
    <i name="e_0_energy">    -43.96242146 </i>
   </energy>
  </scstep>
  <scstep>
   <time name="dav">    0.04    0.04</time>
   <time name="total">    0.05    0.05</time>
   <energy>
    <i name="e_fr_energy">    -43.49245956 </i>
    <i name="e_wo_entrp">    -43.49245956 </i>
    <i name="e_0_energy">    -43.49245956 </i>
   </energy>
  </scstep>
  <scstep>
   <time name="dav">    0.03    0.03</time>
   <time name="total">    0.04    0.05</time>
   <energy>
    <i name="e_fr_energy">    -43.26280187 </i>
    <i name="e_wo_entrp">    -43.26280187 </i>
    <i name="e_0_energy">    -43.26280187 </i>
   </energy>
  </scstep>
  <scstep>
   <time name="dav">    0.03    0.03</time>
   <time name="total">    0.04    0.05</time>
   <energy>
    <i name="e_fr_energy">    -43.26746450 </i>
    <i name="e_wo_entrp">    -43.26746450 </i>
    <i name="e_0_energy">    -43.26746450 </i>
   </energy>
  </scstep>
  <scstep>
   <time name="dav">    0.03    0.03</time>
   <time name="total">    0.04    0.05</time>
   <energy>
    <i name="e_fr_energy">    -43.26912097 </i>
    <i name="e_wo_entrp">    -43.26912097 </i>
    <i name="e_0_energy">    -43.26912097 </i>
   </energy>
  </scstep>
  <scstep>
   <time name="dav">    0.03    0.03</time>
   <time name="total">    0.04    0.04</time>
   <energy>
    <i name="e_fr_energy">    -43.26922942 </i>
    <i name="e_wo_entrp">    -43.26922942 </i>
    <i name="e_0_energy">    -43.26922942 </i>
   </energy>
  </scstep>
  <scstep>
   <time name="dav">    0.03    0.03</time>
   <time name="total">    0.03    0.04</time>
   <energy>
    <i name="alphaZ">     13.44915721 </i>
    <i name="ewald">   -914.08579262 </i>
    <i name="hartreedc">    -59.68826638 </i>
    <i name="XCdc">    -71.81472120 </i>
    <i name="pawpsdc">   4209.40982361 </i>
    <i name="pawaedc">  -4069.59073721 </i>
    <i name="eentropy">     -0.00000000 </i>
    <i name="bandstr">     24.56504174 </i>
    <i name="atom">    824.48621262 </i>
    <i name="e_fr_energy">    -43.26928223 </i>
    <i name="e_wo_entrp">    -43.26928223 </i>
    <i name="e_0_energy">    -43.26928223 </i>
   </energy>
  </scstep>
  <structure>
   <crystal>
    <varray name="basis" >
     <v>       5.43100000       0.00000000       0.00000000 </v>
     <v>       0.00000000       5.43100000       0.00000000 </v>
     <v>       0.00000000       0.00000000       5.43100000 </v>
    </varray>
    <i name="volume">    160.19147799 </i>
    <varray name="rec_basis" >
     <v>       0.18412815       0.00000000       0.00000000 </v>
     <v>       0.00000000       0.18412815       0.00000000 </v>
     <v>       0.00000000       0.00000000       0.18412815 </v>
    </varray>
   </crystal>
   <varray name="positions" >
    <v>       0.00000000       0.00000000       0.00000000 </v>
    <v>       0.00000000       0.50000000       0.50000000 </v>
    <v>       0.50000000       0.00000000       0.50000000 </v>
    <v>       0.50000000       0.50000000       0.00000000 </v>
    <v>       0.25000000       0.25000000       0.25000000 </v>
    <v>       0.75000000       0.75000000       0.25000000 </v>
    <v>       0.75000000       0.25000000       0.75000000 </v>
    <v>       0.25000000       0.75000000       0.75000000 </v>
   </varray>
  </structure>
  <varray name="forces" >
   <v>      -0.00000000      -0.00000000       0.00000000 </v>
   <v>       0.00000000      -0.00000000       0.00000000 </v>
   <v>       0.00000000      -0.00000000      -0.00000000 </v>
   <v>       0.00000000       0.00000000       0.00000000 </v>
   <v>      -0.00000000       0.00000000      -0.00000000 </v>
   <v>       0.00000000       0.00000000      -0.00000000 </v>
   <v>      -0.00000000       0.00000000      -0.00000000 </v>
   <v>      -0.00000000       0.00000000       0.00000000 </v>
  </varray>
  <varray name="stress" >
   <v>      17.35034376      -0.00000000       0.00000000 </v>
   <v>      -0.00000000      17.35034376       0.00000000 </v>
   <v>       0.00000000      -0.00000000      17.35034376 </v>
  </varray>
  <energy>
   <i name="e_fr_energy">    -43.26928223 </i>
   <i name="e_wo_entrp">    -43.26928223 </i>
   <i name="e_0_energy">     -0.00000000 </i>
  </energy>
  <time name="totalsc">    0.73    0.79</time>
 </calculation>
 <calculation>
  <scstep>
   <time name="dav">    0.03    0.03</time>
   <time name="total">    0.04    0.04</time>
   <energy>
    <i name="alphaZ">     12.63912708 </i>
    <i name="ewald">   -895.35300511 </i>
    <i name="hartreedc">    -58.46622576 </i>
    <i name="XCdc">    -73.03077966 </i>
    <i name="pawpsdc">   4214.34099415 </i>
    <i name="pawaedc">  -4074.52137736 </i>
    <i name="eentropy">     -0.00000000 </i>
    <i name="bandstr">      6.62274542 </i>
    <i name="atom">    824.48621262 </i>
    <i name="e_fr_energy">    -43.28230863 </i>
    <i name="e_wo_entrp">    -43.28230863 </i>
    <i name="e_0_energy">    -43.28230863 </i>
   </energy>
  </scstep>
  <scstep>
   <time name="dav">    0.03    0.03</time>
   <time name="total">    0.03    0.04</time>
   <energy>
    <i name="e_fr_energy">    -43.28818539 </i>
    <i name="e_wo_entrp">    -43.28818539 </i>
    <i name="e_0_energy">    -43.28818539 </i>
   </energy>
  </scstep>
  <scstep>
   <time name="dav">    0.03    0.03</time>
   <time name="total">    0.04    0.04</time>
   <energy>
    <i name="e_fr_energy">    -43.28823252 </i>
    <i name="e_wo_entrp">    -43.28823252 </i>
    <i name="e_0_energy">    -43.28823252 </i>
   </energy>
  </scstep>
  <scstep>
   <time name="dav">    0.03    0.03</time>
   <time name="total">    0.04    0.04</time>
   <energy>
    <i name="e_fr_energy">    -43.23053602 </i>
    <i name="e_wo_entrp">    -43.23053602 </i>
    <i name="e_0_energy">    -43.23053602 </i>
   </energy>
  </scstep>
  <scstep>
   <time name="dav">    0.03    0.03</time>
   <time name="total">    0.04    0.04</time>
   <energy>
    <i name="e_fr_energy">    -43.20213034 </i>
    <i name="e_wo_entrp">    -43.20213034 </i>
    <i name="e_0_energy">    -43.20213034 </i>
   </energy>
  </scstep>
  <scstep>
   <time name="dav">    0.03    0.03</time>
   <time name="total">    0.04    0.04</time>
   <energy>
    <i name="e_fr_energy">    -43.20192453 </i>
    <i name="e_wo_entrp">    -43.20192453 </i>
    <i name="e_0_energy">    -43.20192453 </i>
   </energy>
  </scstep>
  <scstep>
   <time name="dav">    0.03    0.03</time>
   <time name="total">    0.04    0.04</time>
   <energy>
    <i name="alphaZ">     12.63912708 </i>
    <i name="ewald">   -895.35300511 </i>
    <i name="hartreedc">    -62.67283676 </i>
    <i name="XCdc">    -72.93966690 </i>
    <i name="pawpsdc">   3784.94778064 </i>
    <i name="pawaedc">  -3644.91951097 </i>
    <i name="eentropy">     -0.00000000 </i>
    <i name="bandstr">     10.61003538 </i>
    <i name="atom">    824.48621262 </i>
    <i name="e_fr_energy">    -43.20186403 </i>
    <i name="e_wo_entrp">    -43.20186403 </i>
    <i name="e_0_energy">    -43.20186403 </i>
   </energy>
  </scstep>
  <structure>
   <crystal>
    <varray name="basis" >
     <v>       5.54462867      -0.00000000       0.00000000 </v>
     <v>      -0.00000000       5.54462867       0.00000000 </v>
     <v>       0.00000000      -0.00000000       5.54462867 </v>
    </varray>
    <i name="volume">    170.45800381 </i>
    <varray name="rec_basis" >
     <v>       0.18035473       0.00000000       0.00000000 </v>
     <v>       0.00000000       0.18035473       0.00000000 </v>
     <v>      -0.00000000      -0.00000000       0.18035473 </v>
    </varray>
   </crystal>
   <varray name="positions" >
    <v>      -0.00000000      -0.00000000       0.00000000 </v>
    <v>       0.00000000       0.50000000       0.50000000 </v>
    <v>       0.50000000      -0.00000000       0.50000000 </v>
    <v>       0.50000000       0.50000000       0.00000000 </v>
    <v>       0.25000000       0.25000000       0.25000000 </v>
    <v>       0.75000000       0.75000000       0.25000000 </v>
    <v>       0.75000000       0.25000000       0.75000000 </v>
    <v>       0.25000000       0.75000000       0.75000000 </v>
   </varray>
  </structure>
  <varray name="forces" >
   <v>       0.00000000      -0.00000000       0.00000000 </v>
   <v>      -0.00000000       0.00000000       0.00000000 </v>
   <v>      -0.00000000       0.00000000      -0.00000000 </v>
   <v>       0.00000000      -0.00000000       0.00000000 </v>
   <v>      -0.00000000       0.00000000      -0.00000000 </v>
   <v>      -0.00000000       0.00000000      -0.00000000 </v>
   <v>       0.00000000      -0.00000000      -0.00000000 </v>
   <v>       0.00000000      -0.00000000      -0.00000000 </v>
  </varray>
  <varray name="stress" >
   <v>     -35.41870774       0.00000000       0.00000000 </v>
   <v>       0.00000000     -35.41870774       0.00000000 </v>
   <v>      -0.00000000       0.00000000     -35.41870774 </v>
  </varray>
  <energy>
   <i name="e_fr_energy">    -43.20186403 </i>
   <i name="e_wo_entrp">    -43.20186403 </i>
   <i name="e_0_energy">     -0.00000000 </i>
  </energy>
  <time name="totalsc">    0.30    0.33</time>
 </calculation>
 <calculation>
  <scstep>
   <time name="dav">    0.03    0.03</time>
   <time name="total">    0.04    0.04</time>
   <energy>
    <i name="alphaZ">     13.19736548 </i>
    <i name="ewald">   -908.34539088 </i>
    <i name="hartreedc">    -63.59419803 </i>
    <i name="XCdc">    -72.10525388 </i>
    <i name="pawpsdc">   3810.93951265 </i>
    <i name="pawaedc">  -3670.91551103 </i>
    <i name="eentropy">     -0.00000000 </i>
    <i name="bandstr">     23.01306426 </i>
    <i name="atom">    824.48621262 </i>
    <i name="e_fr_energy">    -43.32419882 </i>
    <i name="e_wo_entrp">    -43.32419882 </i>
    <i name="e_0_energy">    -43.32419882 </i>
   </energy>
  </scstep>
  <scstep>
   <time name="dav">    0.04    0.04</time>
   <time name="total">    0.04    0.05</time>
   <energy>
    <i name="e_fr_energy">    -43.32776172 </i>
    <i name="e_wo_entrp">    -43.32776172 </i>
    <i name="e_0_energy">    -43.32776172 </i>
   </energy>
  </scstep>
  <scstep>
   <time name="dav">    0.04    0.04</time>
   <time name="total">    0.04    0.05</time>
   <energy>
    <i name="e_fr_energy">    -43.32778288 </i>
    <i name="e_wo_entrp">    -43.32778288 </i>
    <i name="e_0_energy">    -43.32778288 </i>
   </energy>
  </scstep>
  <scstep>
   <time name="dav">    0.03    0.03</time>
   <time name="total">    0.04    0.05</time>
   <energy>
    <i name="e_fr_energy">    -43.29916183 </i>
    <i name="e_wo_entrp">    -43.29916183 </i>
    <i name="e_0_energy">    -43.29916183 </i>
   </energy>
  </scstep>
  <scstep>
   <time name="dav">    0.03    0.03</time>
   <time name="total">    0.04    0.04</time>
   <energy>
    <i name="e_fr_energy">    -43.28531339 </i>
    <i name="e_wo_entrp">    -43.28531339 </i>
    <i name="e_0_energy">    -43.28531339 </i>
   </energy>
  </scstep>
  <scstep>
   <time name="dav">    0.03    0.03</time>
   <time name="total">    0.04    0.04</time>
   <energy>
    <i name="e_fr_energy">    -43.28530198 </i>
    <i name="e_wo_entrp">    -43.28530198 </i>
    <i name="e_0_energy">    -43.28530198 </i>
   </energy>
  </scstep>
  <scstep>
   <time name="dav">    0.02    0.02</time>
   <time name="total">    0.03    0.03</time>
   <energy>
    <i name="alphaZ">     13.19736548 </i>
    <i name="ewald">   -908.34539088 </i>
    <i name="hartreedc">    -60.58348942 </i>
    <i name="XCdc">    -72.15861437 </i>
    <i name="pawpsdc">   4095.62738245 </i>
    <i name="pawaedc">  -3955.74341287 </i>
    <i name="eentropy">     -0.00000000 </i>
    <i name="bandstr">     20.23470841 </i>
    <i name="atom">    824.48621262 </i>
    <i name="e_fr_energy">    -43.28523858 </i>
    <i name="e_wo_entrp">    -43.28523858 </i>
    <i name="e_0_energy">    -43.28523858 </i>
   </energy>
  </scstep>
  <structure>
   <crystal>
    <varray name="basis" >
     <v>       5.46532188      -0.00000000       0.00000000 </v>
     <v>      -0.00000000       5.46532188       0.00000000 </v>
     <v>       0.00000000      -0.00000000       5.46532188 </v>
    </varray>
    <i name="volume">    163.24776138 </i>
    <varray name="rec_basis" >
     <v>       0.18297184       0.00000000       0.00000000 </v>
     <v>       0.00000000       0.18297184       0.00000000 </v>
     <v>      -0.00000000      -0.00000000       0.18297184 </v>
    </varray>
   </crystal>
   <varray name="positions" >
    <v>      -0.00000000      -0.00000000       0.00000000 </v>
    <v>       0.00000000       0.50000000       0.50000000 </v>
    <v>       0.50000000      -0.00000000       0.50000000 </v>
    <v>       0.50000000       0.50000000       0.00000000 </v>
    <v>       0.25000000       0.25000000       0.25000000 </v>
    <v>       0.75000000       0.75000000       0.25000000 </v>
    <v>       0.75000000       0.25000000       0.75000000 </v>
    <v>       0.25000000       0.75000000       0.75000000 </v>
   </varray>
  </structure>
  <varray name="forces" >
   <v>       0.00000000      -0.00000000       0.00000000 </v>
   <v>       0.00000000       0.00000000      -0.00000000 </v>
   <v>      -0.00000000       0.00000000      -0.00000000 </v>
   <v>       0.00000000      -0.00000000       0.00000000 </v>
   <v>      -0.00000000       0.00000000      -0.00000000 </v>
   <v>       0.00000000       0.00000000      -0.00000000 </v>
   <v>      -0.00000000      -0.00000000       0.00000000 </v>
   <v>      -0.00000000      -0.00000000       0.00000000 </v>
  </varray>
  <varray name="stress" >
   <v>      -0.20753366       0.00000000      -0.00000000 </v>
   <v>      -0.00000000      -0.20753366      -0.00000000 </v>
   <v>       0.00000000      -0.00000000      -0.20753366 </v>
  </varray>
  <energy>
   <i name="e_fr_energy">    -43.28523858 </i>
   <i name="e_wo_entrp">    -43.28523858 </i>
   <i name="e_0_energy">     -0.00000000 </i>
  </energy>
  <time name="totalsc">    0.31    0.35</time>
  <eigenvalues>
   <array>
    <dimension dim="1">band</dimension>
    <dimension dim="2">kpoint</dimension>
    <dimension dim="3">spin</dimension>
    <field>eigene</field>
    <field>occ</field>
    <set>
     <set comment="spin 1">
      <set comment="kpoint 1">
       <r>   -5.9914    1.0000 </r>
       <r>   -2.9558    1.0000 </r>
       <r>   -2.9558    1.0000 </r>
       <r>   -2.9558    1.0000 </r>
       <r>   -1.1461    1.0000 </r>
       <r>   -1.1461    1.0000 </r>
       <r>   -1.1461    1.0000 </r>
       <r>    2.2736    1.0000 </r>
       <r>    2.2736    1.0000 </r>
       <r>    2.2736    1.0000 </r>
       <r>    3.0055    1.0000 </r>
       <r>    3.0055    1.0000 </r>
       <r>    3.0055    1.0000 </r>
       <r>    4.0522    1.0000 </r>
       <r>    5.3633    1.0000 </r>
       <r>    5.3633    1.0000 </r>
       <r>    6.5835    0.0000 </r>
       <r>    6.5835    0.0000 </r>
       <r>    6.5835    0.0000 </r>
       <r>    7.6411    0.0000 </r>
       <r>    7.6411    0.0000 </r>
       <r>    7.6411    0.0000 </r>
       <r>    8.0957    0.0000 </r>
       <r>    8.6250    0.0000 </r>
       <r>    8.6250    0.0000 </r>
      </set>
      <set comment="kpoint 2">
       <r>   -5.4629    1.0000 </r>
       <r>   -4.4298    1.0000 </r>
       <r>   -2.7874    1.0000 </r>
       <r>   -2.7874    1.0000 </r>
       <r>   -1.2438    1.0000 </r>
       <r>   -1.2438    1.0000 </r>
       <r>    0.7213    1.0000 </r>
       <r>    1.6621    1.0000 </r>
       <r>    1.6621    1.0000 </r>
       <r>    2.4333    1.0000 </r>
       <r>    2.7412    1.0000 </r>
       <r>    2.7412    1.0000 </r>
       <r>    3.0204    1.0000 </r>
       <r>    3.4740    1.0000 </r>
       <r>    4.3507    1.0000 </r>
       <r>    4.4165    1.0000 </r>
       <r>    7.0230    0.0000 </r>
       <r>    7.7977    0.0000 </r>
       <r>    8.0525    0.0000 </r>
       <r>    8.0525    0.0000 </r>
       <r>    8.5629    0.0000 </r>
       <r>    9.2822    0.0000 </r>
       <r>    9.9341    0.0000 </r>
       <r>    9.9341    0.0000 </r>
       <r>   10.0896    0.0000 </r>
      </set>
      <set comment="kpoint 3">
       <r>   -4.9634    1.0000 </r>
       <r>   -4.0137    1.0000 </r>
       <r>   -4.0137    1.0000 </r>
       <r>   -3.3252    1.0000 </r>
       <r>   -0.9424    1.0000 </r>
       <r>   -0.1547    1.0000 </r>
       <r>   -0.1547    1.0000 </r>
       <r>    1.0537    1.0000 </r>
       <r>    1.7211    1.0000 </r>
       <r>    2.3775    1.0000 </r>
       <r>    2.3775    1.0000 </r>
       <r>    3.3708    1.0000 </r>
       <r>    3.7495    1.0000 </r>
       <r>    3.7495    1.0000 </r>
       <r>    3.7878    1.0000 </r>
       <r>    4.8803    1.0000 </r>
       <r>    7.5107    0.0000 </r>
       <r>    8.3128    0.0000 </r>
       <r>    8.5224    0.0000 </r>
       <r>    8.5224    0.0000 </r>
       <r>    9.1918    0.0000 </r>
       <r>    9.1918    0.0000 </r>
       <r>    9.3171    0.0000 </r>
       <r>    9.4998    0.0000 </r>
       <r>   10.6436    0.0000 </r>
      </set>
      <set comment="kpoint 4">
       <r>   -4.5297    1.0000 </r>
       <r>   -3.8217    1.0000 </r>
       <r>   -3.8217    1.0000 </r>
       <r>   -3.8217    1.0000 </r>
       <r>   -1.0295    1.0000 </r>
       <r>   -1.0295    1.0000 </r>
       <r>   -1.0295    1.0000 </r>
       <r>   -0.2396    1.0000 </r>
       <r>    3.3921    1.0000 </r>
       <r>    3.3921    1.0000 </r>
       <r>    3.3921    1.0000 </r>
       <r>    4.1063    1.0000 </r>
       <r>    4.1063    1.0000 </r>
       <r>    4.1063    1.0000 </r>
       <r>    4.5723    1.0000 </r>
       <r>    4.5723    1.0000 </r>
       <r>    7.2510    0.0000 </r>
       <r>    7.8202    0.0000 </r>
       <r>    7.8202    0.0000 </r>
       <r>    7.8202    0.0000 </r>
       <r>    9.1147    0.0000 </r>
       <r>    9.1147    0.0000 </r>
       <r>    9.1501    0.0000 </r>
       <r>    9.1501    0.0000 </r>
       <r>    9.1501    0.0000 </r>
      </set>
     </set>
    </set>
   </array>
  </eigenvalues>
  <separator name="orbital magnetization" >
   <v name="MAGDIPOLOUT">      0.00000000      0.00000000      0.00000000</v>
  </separator>
  <dos>
   <i name="efermi">      5.80558641 </i>
   <total>
    <array>
     <dimension dim="1">gridpoints</dimension>
     <dimension dim="2">spin</dimension>
     <field>energy</field>
     <field>total</field>
     <field>integrated</field>
     <set>
      <set comment="spin 1">
       <r>    -6.9914     0.0000     0.0000 </r>
       <r>    -6.9293     0.0000     0.0000 </r>
       <r>    -6.8672     0.0000     0.0000 </r>
       <r>    -6.8051     0.0000     0.0000 </r>
       <r>    -6.7430     0.0000     0.0000 </r>
       <r>    -6.6809     0.0000     0.0000 </r>
       <r>    -6.6187     0.0000     0.0000 </r>
       <r>    -6.5566     0.0000     0.0000 </r>
       <r>    -6.4945     0.0000     0.0000 </r>
       <r>    -6.4324     0.0000     0.0000 </r>
       <r>    -6.3703     0.0000     0.0000 </r>
       <r>    -6.3082     0.0000     0.0000 </r>
       <r>    -6.2460     0.0006     0.0000 </r>
       <r>    -6.1839     0.0124     0.0008 </r>
       <r>    -6.1218     0.1182     0.0082 </r>
       <r>    -6.0597     0.5418     0.0418 </r>
       <r>    -5.9976     1.2002     0.1164 </r>
       <r>    -5.9355     1.2891     0.1964 </r>
       <r>    -5.8733     0.6714     0.2381 </r>
       <r>    -5.8112     0.1692     0.2486 </r>
       <r>    -5.7491     0.0208     0.2499 </r>
       <r>    -5.6870     0.0101     0.2506 </r>
       <r>    -5.6249     0.1235     0.2582 </r>
       <r>    -5.5628     0.8202     0.3092 </r>
       <r>    -5.5006     2.6295     0.4725 </r>
       <r>    -5.4385     4.0820     0.7261 </r>
       <r>    -5.3764     3.0735     0.9170 </r>
       <r>    -5.3143     1.1212     0.9867 </r>
       <r>    -5.2522     0.1978     0.9989 </r>
       <r>    -5.1901     0.0246     1.0005 </r>
       <r>    -5.1279     0.1131     1.0075 </r>
       <r>    -5.0658     0.7699     1.0553 </r>
       <r>    -5.0037     2.5428     1.2133 </r>
       <r>    -4.9416     4.0665     1.4659 </r>
       <r>    -4.8795     3.1541     1.6618 </r>
       <r>    -4.8174     1.1855     1.7354 </r>
       <r>    -4.7552     0.2180     1.7490 </r>
       <r>    -4.6931     0.0589     1.7526 </r>
       <r>    -4.6310     0.2901     1.7706 </r>
       <r>    -4.5689     1.1302     1.8409 </r>
       <r>    -4.5068     2.7298     2.0104 </r>
       <r>    -4.4447     4.4045     2.2840 </r>
       <r>    -4.3825     4.3853     2.5564 </r>
       <r>    -4.3204     2.3749     2.7039 </r>
       <r>    -4.2583     0.6556     2.7447 </r>
       <r>    -4.1962     0.1991     2.7570 </r>
       <r>    -4.1341     0.9566     2.8164 </r>
       <r>    -4.0720     3.8800     3.0575 </r>
       <r>    -4.0098     7.6925     3.5353 </r>
       <r>    -3.9477     7.7179     4.0147 </r>
       <r>    -3.8856     5.1494     4.3346 </r>
       <r>    -3.8235     4.4642     4.6119 </r>
       <r>    -3.7614     3.8659     4.8520 </r>
       <r>    -3.6993     1.8786     4.9687 </r>
       <r>    -3.6371     0.4492     4.9966 </r>
       <r>    -3.5750     0.0542     5.0000 </r>
       <r>    -3.5129     0.0484     5.0030 </r>
       <r>    -3.4508     0.4098     5.0284 </r>
       <r>    -3.3887     1.7744     5.1387 </r>
       <r>    -3.3266     3.7158     5.3695 </r>
       <r>    -3.2644     3.7729     5.6038 </r>
       <r>    -3.2023     1.8603     5.7194 </r>
       <r>    -3.1402     0.4943     5.7501 </r>
       <r>    -3.0781     0.5019     5.7813 </r>
       <r>    -3.0160     1.8954     5.8990 </r>
       <r>    -2.9539     3.9958     6.1472 </r>
       <r>    -2.8917     5.1675     6.4682 </r>
       <r>    -2.8296     6.7082     6.8849 </r>
       <r>    -2.7675     8.5050     7.4132 </r>
       <r>    -2.7054     6.4721     7.8152 </r>
       <r>    -2.6433     2.4732     7.9688 </r>
       <r>    -2.5811     0.4588     7.9973 </r>
       <r>    -2.5190     0.0409     7.9999 </r>
       <r>    -2.4569     0.0017     8.0000 </r>
       <r>    -2.3948     0.0000     8.0000 </r>
       <r>    -2.3327     0.0000     8.0000 </r>
       <r>    -2.2706     0.0000     8.0000 </r>
       <r>    -2.2084     0.0000     8.0000 </r>
       <r>    -2.1463     0.0000     8.0000 </r>
       <r>    -2.0842     0.0000     8.0000 </r>
       <r>    -2.0221     0.0000     8.0000 </r>
       <r>    -1.9600     0.0000     8.0000 </r>
       <r>    -1.8979     0.0000     8.0000 </r>
       <r>    -1.8357     0.0000     8.0000 </r>
       <r>    -1.7736     0.0000     8.0000 </r>
       <r>    -1.7115     0.0000     8.0000 </r>
       <r>    -1.6494     0.0000     8.0000 </r>
       <r>    -1.5873     0.0000     8.0000 </r>
       <r>    -1.5252     0.0008     8.0001 </r>
       <r>    -1.4630     0.0225     8.0015 </r>
       <r>    -1.4009     0.2958     8.0198 </r>
       <r>    -1.3388     1.8816     8.1367 </r>
       <r>    -1.2767     5.9419     8.5058 </r>
       <r>    -1.2146     9.8654     9.1186 </r>
       <r>    -1.1525     9.8848     9.7326 </r>
       <r>    -1.0903     7.9381    10.2257 </r>
       <r>    -1.0282     7.2649    10.6770 </r>
       <r>    -0.9661     7.3496    11.1335 </r>
       <r>    -0.9040     5.9186    11.5011 </r>
       <r>    -0.8419     3.0215    11.6888 </r>
       <r>    -0.7798     0.8528    11.7418 </r>
       <r>    -0.7176     0.1229    11.7494 </r>
       <r>    -0.6555     0.0087    11.7500 </r>
       <r>    -0.5934     0.0003    11.7500 </r>
       <r>    -0.5313     0.0001    11.7500 </r>
       <r>    -0.4692     0.0024    11.7502 </r>
       <r>    -0.4071     0.0378    11.7525 </r>
       <r>    -0.3449     0.3201    11.7724 </r>
       <r>    -0.2828     1.5739    11.8702 </r>
       <r>    -0.2207     4.7369    12.1644 </r>
       <r>    -0.1586     8.3943    12.6858 </r>
       <r>    -0.0965     8.0700    13.1871 </r>
       <r>    -0.0344     3.9588    13.4330 </r>
       <r>     0.0278     0.9591    13.4926 </r>
       <r>     0.0899     0.1128    13.4996 </r>
       <r>     0.1520     0.0064    13.5000 </r>
       <r>     0.2141     0.0002    13.5000 </r>
       <r>     0.2762     0.0000    13.5000 </r>
       <r>     0.3383     0.0000    13.5000 </r>
       <r>     0.4005     0.0000    13.5000 </r>
       <r>     0.4626     0.0015    13.5001 </r>
       <r>     0.5247     0.0313    13.5020 </r>
       <r>     0.5868     0.3128    13.5215 </r>
       <r>     0.6489     1.5039    13.6149 </r>
       <r>     0.7110     3.4943    13.8319 </r>
       <r>     0.7732     3.9360    14.0764 </r>
       <r>     0.8353     2.1613    14.2107 </r>
       <r>     0.8974     0.7195    14.2554 </r>
       <r>     0.9595     1.0132    14.3183 </r>
       <r>     1.0216     2.8260    14.4939 </r>
       <r>     1.0837     4.0990    14.7485 </r>
       <r>     1.1459     2.8879    14.9279 </r>
       <r>     1.2080     0.9857    14.9891 </r>
       <r>     1.2701     0.1624    14.9992 </r>
       <r>     1.3322     0.0129    15.0000 </r>
       <r>     1.3943     0.0023    15.0001 </r>
       <r>     1.4564     0.0431    15.0028 </r>
       <r>     1.5186     0.4914    15.0333 </r>
       <r>     1.5807     2.7592    15.2047 </r>
       <r>     1.6428     7.7970    15.6890 </r>
       <r>     1.7049    11.4189    16.3983 </r>
       <r>     1.7670     8.9311    16.9531 </r>
       <r>     1.8291     3.7966    17.1889 </r>
       <r>     1.8913     0.8713    17.2431 </r>
       <r>     1.9534     0.1050    17.2496 </r>
       <r>     2.0155     0.0080    17.2501 </r>
       <r>     2.0776     0.0325    17.2521 </r>
       <r>     2.1397     0.3274    17.2724 </r>
       <r>     2.2018     1.6735    17.3764 </r>
       <r>     2.2640     4.7548    17.6718 </r>
       <r>     2.3261     8.9410    18.2271 </r>
       <r>     2.3882    12.3969    18.9972 </r>
       <r>     2.4503    11.5452    19.7143 </r>
       <r>     2.5124     6.3645    20.1097 </r>
       <r>     2.5745     2.1407    20.2427 </r>
       <r>     2.6367     1.7734    20.3528 </r>
       <r>     2.6988     4.9684    20.6614 </r>
       <r>     2.7609     8.1057    21.1649 </r>
       <r>     2.8230     6.5252    21.5703 </r>
       <r>     2.8851     3.2614    21.7729 </r>
       <r>     2.9472     3.8821    22.0140 </r>
       <r>     3.0094     7.3383    22.4698 </r>
       <r>     3.0715     7.6057    22.9423 </r>
       <r>     3.1336     3.8773    23.1831 </r>
       <r>     3.1957     1.0679    23.2495 </r>
       <r>     3.2578     1.0275    23.3133 </r>
       <r>     3.3199     3.8636    23.5533 </r>
       <r>     3.3821     8.4411    24.0776 </r>
       <r>     3.4442    10.2946    24.7171 </r>
       <r>     3.5063     7.7236    25.1968 </r>
       <r>     3.5684     3.8126    25.4337 </r>
       <r>     3.6305     2.1748    25.5687 </r>
       <r>     3.6926     5.0472    25.8823 </r>
       <r>     3.7548    10.5028    26.5347 </r>
       <r>     3.8169    11.3436    27.2393 </r>
       <r>     3.8790     6.2581    27.6280 </r>
       <r>     3.9411     2.0512    27.7554 </r>
       <r>     4.0032     1.7510    27.8642 </r>
       <r>     4.0653     3.8629    28.1042 </r>
       <r>     4.1275     5.2098    28.4278 </r>
       <r>     4.1896     3.7842    28.6628 </r>
       <r>     4.2517     2.2472    28.8024 </r>
       <r>     4.3138     3.6531    29.0293 </r>
       <r>     4.3759     6.6598    29.4430 </r>
       <r>     4.4380     7.3213    29.8978 </r>
       <r>     4.5002     5.2703    30.2252 </r>
       <r>     4.5623     3.7183    30.4561 </r>
       <r>     4.6244     2.8566    30.6336 </r>
       <r>     4.6865     1.4831    30.7257 </r>
       <r>     4.7486     0.7183    30.7703 </r>
       <r>     4.8107     1.6343    30.8718 </r>
       <r>     4.8729     3.5709    31.0937 </r>
       <r>     4.9350     3.8901    31.3353 </r>
       <r>     4.9971     2.0567    31.4630 </r>
       <r>     5.0592     0.5262    31.4957 </r>
       <r>     5.1213     0.0673    31.4999 </r>
       <r>     5.1834     0.0454    31.5027 </r>
       <r>     5.2456     0.3416    31.5240 </r>
       <r>     5.3077     1.3500    31.6078 </r>
       <r>     5.3698     2.5822    31.7682 </r>
       <r>     5.4319     2.3949    31.9170 </r>
       <r>     5.4940     1.0768    31.9839 </r>
       <r>     5.5561     0.2341    31.9984 </r>
       <r>     5.6183     0.0245    31.9999 </r>
       <r>     5.6804     0.0012    32.0000 </r>
       <r>     5.7425     0.0000    32.0000 </r>
       <r>     5.8046     0.0000    32.0000 </r>
       <r>     5.8667     0.0000    32.0000 </r>
       <r>     5.9288     0.0000    32.0000 </r>
       <r>     5.9910     0.0000    32.0000 </r>
       <r>     6.0531     0.0000    32.0000 </r>
       <r>     6.1152     0.0000    32.0000 </r>
       <r>     6.1773     0.0000    32.0000 </r>
       <r>     6.2394     0.0000    32.0000 </r>
       <r>     6.3016     0.0004    32.0000 </r>
       <r>     6.3637     0.0109    32.0007 </r>
       <r>     6.4258     0.1438    32.0096 </r>
       <r>     6.4879     0.9091    32.0661 </r>
       <r>     6.5500     2.7731    32.2384 </r>
       <r>     6.6121     4.0969    32.4929 </r>
       <r>     6.6743     2.9356    32.6752 </r>
       <r>     6.7364     1.0193    32.7385 </r>
       <r>     6.7985     0.1795    32.7497 </r>
       <r>     6.8606     0.1353    32.7581 </r>
       <r>     6.9227     0.8123    32.8085 </r>
       <r>     6.9848     2.6155    32.9710 </r>
       <r>     7.0470     4.0873    33.2249 </r>
       <r>     7.1091     3.1691    33.4217 </r>
       <r>     7.1712     1.5629    33.5188 </r>
       <r>     7.2333     1.2943    33.5992 </r>
       <r>     7.2954     1.3743    33.6846 </r>
       <r>     7.3575     0.9711    33.7449 </r>
       <r>     7.4197     1.2540    33.8228 </r>
       <r>     7.4818     3.0947    34.0150 </r>
       <r>     7.5439     4.9762    34.3242 </r>
       <r>     7.6060     5.5531    34.6691 </r>
       <r>     7.6681     5.5471    35.0137 </r>
       <r>     7.7302     5.8230    35.3754 </r>
       <r>     7.7924     7.6551    35.8509 </r>
       <r>     7.8545     8.1883    36.3595 </r>
       <r>     7.9166     5.3667    36.6929 </r>
       <r>     7.9787     4.4855    36.9715 </r>
       <r>     8.0408     7.7918    37.4555 </r>
       <r>     8.1029     9.2412    38.0295 </r>
       <r>     8.1651     5.7918    38.3893 </r>
       <r>     8.2272     2.8553    38.5667 </r>
       <r>     8.2893     3.3794    38.7766 </r>
       <r>     8.3514     4.2917    39.0432 </r>
       <r>     8.4135     4.1081    39.2984 </r>
       <r>     8.4756     6.6764    39.7131 </r>
       <r>     8.5378    11.9123    40.4530 </r>
       <r>     8.5999    12.8289    41.2499 </r>
       <r>     8.6620     8.0987    41.7530 </r>
       <r>     8.7241     3.1394    41.9480 </r>
       <r>     8.7862     0.7344    41.9936 </r>
       <r>     8.8483     0.0969    41.9996 </r>
       <r>     8.9105     0.0264    42.0013 </r>
       <r>     8.9726     0.2548    42.0171 </r>
       <r>     9.0347     1.7040    42.1229 </r>
       <r>     9.0968     6.1941    42.5077 </r>
       <r>     9.1589    12.7709    43.3010 </r>
       <r>     9.2210    16.0783    44.2997 </r>
       <r>     9.2832    14.3738    45.1926 </r>
       <r>     9.3453    10.3809    45.8374 </r>
       <r>     9.4074     6.0884    46.2156 </r>
       <r>     9.4695     4.3529    46.4860 </r>
       <r>     9.5316     4.3196    46.7543 </r>
       <r>     9.5937     2.8448    46.9310 </r>
       <r>     9.6559     0.9469    46.9898 </r>
       <r>     9.7180     0.1785    47.0009 </r>
       <r>     9.7801     0.3402    47.0220 </r>
       <r>     9.8422     1.9887    47.1456 </r>
       <r>     9.9043     5.8465    47.5087 </r>
       <r>     9.9664     8.6359    48.0452 </r>
       <r>    10.0286     7.4710    48.5093 </r>
       <r>    10.0907     5.6349    48.8593 </r>
       <r>    10.1528     4.0215    49.1091 </r>
       <r>    10.2149     1.8061    49.2213 </r>
       <r>    10.2770     0.4139    49.2470 </r>
       <r>    10.3391     0.0462    49.2498 </r>
       <r>    10.4013     0.0060    49.2502 </r>
       <r>    10.4634     0.0617    49.2541 </r>
       <r>    10.5255     0.5075    49.2856 </r>
       <r>    10.5876     2.0141    49.4107 </r>
       <r>    10.6497     3.8673    49.6509 </r>
       <r>    10.7118     3.6007    49.8746 </r>
       <r>    10.7740     1.6253    49.9755 </r>
       <r>    10.8361     0.3547    49.9976 </r>
       <r>    10.8982     0.0372    49.9999 </r>
       <r>    10.9603     0.0019    50.0000 </r>
       <r>    11.0224     0.0000    50.0000 </r>
       <r>    11.0845     0.0000    50.0000 </r>
       <r>    11.1467     0.0000    50.0000 </r>
       <r>    11.2088     0.0000    50.0000 </r>
       <r>    11.2709     0.0000    50.0000 </r>
       <r>    11.3330     0.0000    50.0000 </r>
       <r>    11.3951     0.0000    50.0000 </r>
       <r>    11.4572     0.0000    50.0000 </r>
       <r>    11.5194     0.0000    50.0000 </r>
       <r>    11.5815     0.0000    50.0000 </r>
       <r>    11.6436     0.0000    50.0000 </r>
      </set>
     </set>
    </array>
   </total>
  </dos>
 </calculation>
 <structure name="finalpos" >
  <crystal>
   <varray name="basis" >
    <v>       5.46532188      -0.00000000       0.00000000 </v>
    <v>      -0.00000000       5.46532188       0.00000000 </v>
    <v>       0.00000000      -0.00000000       5.46532188 </v>
   </varray>
   <i name="volume">    163.24776138 </i>
   <varray name="rec_basis" >
    <v>       0.18297184       0.00000000       0.00000000 </v>
    <v>       0.00000000       0.18297184       0.00000000 </v>
    <v>      -0.00000000      -0.00000000       0.18297184 </v>
   </varray>
  </crystal>
  <varray name="positions" >
   <v>      -0.00000000      -0.00000000       0.00000000 </v>
   <v>       0.00000000       0.50000000       0.50000000 </v>
   <v>       0.50000000      -0.00000000       0.50000000 </v>
   <v>       0.50000000       0.50000000       0.00000000 </v>
   <v>       0.25000000       0.25000000       0.25000000 </v>
   <v>       0.75000000       0.75000000       0.25000000 </v>
   <v>       0.75000000       0.25000000       0.75000000 </v>
   <v>       0.25000000       0.75000000       0.75000000 </v>
  </varray>
 </structure>
</modeling>
