   8   8   0   0
  0.2002393E+02  0.5431000E-09  0.5431000E-09  0.5431000E-09  0.1000000E-14
  1.000000000000000E-004
  CAR 
 diamond Si                              
     11.85220725     -7.19965413  301      5.91629046      1.00000000
     -7.200  0.0000E+00  0.0000E+00
     -7.136  0.0000E+00  0.0000E+00
     -7.073  0.0000E+00  0.0000E+00
     -7.009  0.0000E+00  0.0000E+00
     -6.946  0.0000E+00  0.0000E+00
     -6.882  0.0000E+00  0.0000E+00
     -6.819  0.0000E+00  0.0000E+00
     -6.755  0.6129E-17  0.3893E-18
     -6.692  0.5268E-14  0.3349E-15
     -6.628  0.2241E-11  0.1426E-12
     -6.565  0.4493E-09  0.2868E-10
     -6.501  0.4325E-07  0.2775E-08
     -6.438  0.2043E-05  0.1325E-06
     -6.374  0.4847E-04  0.3210E-05
     -6.311  0.5919E-03  0.4080E-04
     -6.247  0.3830E-02  0.2840E-03
     -6.184  0.1378E-01  0.1159E-02
     -6.120  0.3064E-01  0.3105E-02
     -6.057  0.4953E-01  0.6250E-02
     -5.993  0.6486E-01  0.1037E-01
     -5.930  0.7459E-01  0.1511E-01
     -5.866  0.8719E-01  0.2064E-01
     -5.803  0.9927E-01  0.2695E-01
     -5.739  0.1048E+00  0.3360E-01
     -5.676  0.1076E+00  0.4044E-01
     -5.612  0.1173E+00  0.4788E-01
     -5.548  0.1363E+00  0.5654E-01
     -5.485  0.1435E+00  0.6566E-01
     -5.421  0.1336E+00  0.7414E-01
     -5.358  0.1321E+00  0.8253E-01
     -5.294  0.1578E+00  0.9255E-01
     -5.231  0.1788E+00  0.1039E+00
     -5.167  0.1755E+00  0.1151E+00
     -5.104  0.1652E+00  0.1255E+00
     -5.040  0.1724E+00  0.1365E+00
     -4.977  0.1842E+00  0.1482E+00
     -4.913  0.1857E+00  0.1600E+00
     -4.850  0.1998E+00  0.1727E+00
     -4.786  0.2283E+00  0.1872E+00
     -4.723  0.2339E+00  0.2020E+00
     -4.659  0.2133E+00  0.2156E+00
     -4.596  0.1987E+00  0.2282E+00
     -4.532  0.2062E+00  0.2413E+00
     -4.469  0.2403E+00  0.2565E+00
     -4.405  0.2848E+00  0.2746E+00
     -4.342  0.2904E+00  0.2931E+00
     -4.278  0.2601E+00  0.3096E+00
     -4.215  0.2625E+00  0.3263E+00
     -4.151  0.2908E+00  0.3447E+00
     -4.088  0.2973E+00  0.3636E+00
     -4.024  0.3057E+00  0.3830E+00
     -3.961  0.3343E+00  0.4043E+00
     -3.897  0.3687E+00  0.4277E+00
     -3.834  0.4197E+00  0.4543E+00
     -3.770  0.4521E+00  0.4830E+00
     -3.707  0.3959E+00  0.5082E+00
     -3.643  0.3136E+00  0.5281E+00
     -3.580  0.3310E+00  0.5491E+00
     -3.516  0.3754E+00  0.5729E+00
     -3.453  0.3330E+00  0.5941E+00
     -3.389  0.2934E+00  0.6127E+00
     -3.326  0.3096E+00  0.6324E+00
     -3.262  0.3382E+00  0.6539E+00
     -3.199  0.3719E+00  0.6775E+00
     -3.135  0.3631E+00  0.7005E+00
     -3.072  0.2914E+00  0.7191E+00
     -3.008  0.2102E+00  0.7324E+00
     -2.945  0.1716E+00  0.7433E+00
     -2.881  0.1720E+00  0.7542E+00
     -2.818  0.2096E+00  0.7675E+00
     -2.754  0.2851E+00  0.7856E+00
     -2.691  0.3253E+00  0.8063E+00
     -2.627  0.2870E+00  0.8245E+00
     -2.564  0.2208E+00  0.8385E+00
     -2.500  0.1516E+00  0.8482E+00
     -2.437  0.9861E-01  0.8544E+00
     -2.373  0.7841E-01  0.8594E+00
     -2.310  0.7830E-01  0.8644E+00
     -2.246  0.8664E-01  0.8699E+00
     -2.183  0.9458E-01  0.8759E+00
     -2.119  0.1038E+00  0.8825E+00
     -2.056  0.1162E+00  0.8899E+00
     -1.992  0.1171E+00  0.8973E+00
     -1.929  0.9394E-01  0.9033E+00
     -1.865  0.6498E-01  0.9074E+00
     -1.802  0.5167E-01  0.9107E+00
     -1.738  0.5021E-01  0.9139E+00
     -1.675  0.5646E-01  0.9174E+00
     -1.611  0.6573E-01  0.9216E+00
     -1.548  0.9946E-01  0.9279E+00
     -1.484  0.2217E+00  0.9420E+00
     -1.421  0.3842E+00  0.9664E+00
     -1.357  0.3979E+00  0.9917E+00
     -1.294  0.2911E+00  0.1010E+01
     -1.230  0.2644E+00  0.1027E+01
     -1.167  0.3693E+00  0.1050E+01
     -1.103  0.5251E+00  0.1084E+01
     -1.040  0.6079E+00  0.1122E+01
     -0.976  0.5948E+00  0.1160E+01
     -0.913  0.5139E+00  0.1193E+01
     -0.849  0.4073E+00  0.1219E+01
     -0.786  0.4134E+00  0.1245E+01
     -0.722  0.4804E+00  0.1275E+01
     -0.659  0.4062E+00  0.1301E+01
     -0.595  0.2361E+00  0.1316E+01
     -0.532  0.1770E+00  0.1327E+01
     -0.468  0.2485E+00  0.1343E+01
     -0.404  0.3183E+00  0.1363E+01
     -0.341  0.2866E+00  0.1382E+01
     -0.277  0.2025E+00  0.1394E+01
     -0.214  0.1502E+00  0.1404E+01
     -0.150  0.1538E+00  0.1414E+01
     -0.087  0.2477E+00  0.1430E+01
     -0.023  0.3404E+00  0.1451E+01
      0.040  0.2919E+00  0.1470E+01
      0.104  0.1683E+00  0.1480E+01
      0.167  0.9272E-01  0.1486E+01
      0.231  0.8742E-01  0.1492E+01
      0.294  0.1342E+00  0.1500E+01
      0.358  0.2104E+00  0.1514E+01
      0.421  0.2364E+00  0.1529E+01
      0.485  0.1676E+00  0.1539E+01
      0.548  0.1096E+00  0.1546E+01
      0.612  0.9392E-01  0.1552E+01
      0.675  0.8316E-01  0.1558E+01
      0.739  0.1110E+00  0.1565E+01
      0.802  0.1907E+00  0.1577E+01
      0.866  0.2267E+00  0.1591E+01
      0.929  0.1596E+00  0.1601E+01
      0.993  0.7885E-01  0.1606E+01
      1.056  0.4913E-01  0.1609E+01
      1.120  0.5275E-01  0.1613E+01
      1.183  0.6837E-01  0.1617E+01
      1.247  0.1083E+00  0.1624E+01
      1.310  0.1954E+00  0.1636E+01
      1.374  0.2693E+00  0.1653E+01
      1.437  0.3085E+00  0.1673E+01
      1.501  0.3826E+00  0.1697E+01
      1.564  0.4628E+00  0.1727E+01
      1.628  0.4796E+00  0.1757E+01
      1.691  0.4574E+00  0.1786E+01
      1.755  0.4879E+00  0.1817E+01
      1.818  0.5698E+00  0.1853E+01
      1.882  0.5878E+00  0.1891E+01
      1.945  0.5114E+00  0.1923E+01
      2.009  0.4233E+00  0.1950E+01
      2.072  0.3734E+00  0.1974E+01
      2.136  0.3958E+00  0.1999E+01
      2.199  0.4719E+00  0.2029E+01
      2.263  0.5153E+00  0.2062E+01
      2.326  0.5155E+00  0.2094E+01
      2.390  0.5241E+00  0.2128E+01
      2.453  0.5273E+00  0.2161E+01
      2.517  0.5157E+00  0.2194E+01
      2.580  0.5037E+00  0.2226E+01
      2.644  0.4828E+00  0.2257E+01
      2.707  0.5119E+00  0.2289E+01
      2.771  0.6056E+00  0.2328E+01
      2.834  0.6872E+00  0.2371E+01
      2.898  0.7190E+00  0.2417E+01
      2.961  0.6974E+00  0.2461E+01
      3.025  0.6775E+00  0.2504E+01
      3.088  0.6731E+00  0.2547E+01
      3.152  0.6430E+00  0.2588E+01
      3.215  0.5968E+00  0.2626E+01
      3.279  0.5881E+00  0.2663E+01
      3.342  0.6628E+00  0.2705E+01
      3.406  0.7394E+00  0.2752E+01
      3.469  0.6837E+00  0.2795E+01
      3.533  0.5500E+00  0.2830E+01
      3.596  0.4954E+00  0.2862E+01
      3.660  0.5628E+00  0.2898E+01
      3.723  0.6375E+00  0.2938E+01
      3.787  0.6508E+00  0.2979E+01
      3.850  0.6057E+00  0.3018E+01
      3.914  0.5455E+00  0.3052E+01
      3.977  0.5199E+00  0.3086E+01
      4.041  0.4970E+00  0.3117E+01
      4.104  0.5147E+00  0.3150E+01
      4.168  0.5999E+00  0.3188E+01
      4.231  0.6223E+00  0.3227E+01
      4.295  0.5327E+00  0.3261E+01
      4.358  0.4338E+00  0.3289E+01
      4.422  0.4018E+00  0.3314E+01
      4.485  0.4421E+00  0.3342E+01
      4.549  0.4786E+00  0.3373E+01
      4.612  0.4073E+00  0.3399E+01
      4.676  0.2916E+00  0.3417E+01
      4.740  0.2381E+00  0.3432E+01
      4.803  0.2325E+00  0.3447E+01
      4.867  0.2264E+00  0.3461E+01
      4.930  0.2314E+00  0.3476E+01
      4.994  0.2283E+00  0.3491E+01
      5.057  0.1807E+00  0.3502E+01
      5.121  0.1427E+00  0.3511E+01
      5.184  0.1365E+00  0.3520E+01
      5.248  0.1213E+00  0.3527E+01
      5.311  0.1066E+00  0.3534E+01
      5.375  0.1050E+00  0.3541E+01
      5.438  0.9336E-01  0.3547E+01
      5.502  0.6574E-01  0.3551E+01
      5.565  0.3838E-01  0.3553E+01
      5.629  0.2073E-01  0.3555E+01
      5.692  0.9288E-02  0.3555E+01
      5.756  0.2552E-02  0.3556E+01
      5.819  0.3631E-03  0.3556E+01
      5.883  0.2535E-04  0.3556E+01
      5.946  0.1540E-05  0.3556E+01
      6.010  0.2162E-04  0.3556E+01
      6.073  0.3228E-03  0.3556E+01
      6.137  0.2338E-02  0.3556E+01
      6.200  0.8502E-02  0.3556E+01
      6.264  0.1734E-01  0.3557E+01
      6.327  0.2970E-01  0.3559E+01
      6.391  0.6419E-01  0.3563E+01
      6.454  0.1171E+00  0.3571E+01
      6.518  0.1410E+00  0.3580E+01
      6.581  0.1381E+00  0.3588E+01
      6.645  0.1514E+00  0.3598E+01
      6.708  0.1773E+00  0.3609E+01
      6.772  0.1900E+00  0.3621E+01
      6.835  0.1802E+00  0.3633E+01
      6.899  0.1915E+00  0.3645E+01
      6.962  0.2657E+00  0.3662E+01
      7.026  0.3229E+00  0.3682E+01
      7.089  0.3122E+00  0.3702E+01
      7.153  0.2792E+00  0.3720E+01
      7.216  0.2818E+00  0.3738E+01
      7.280  0.3604E+00  0.3761E+01
      7.343  0.4315E+00  0.3788E+01
      7.407  0.4233E+00  0.3815E+01
      7.470  0.3973E+00  0.3840E+01
      7.534  0.4215E+00  0.3867E+01
      7.597  0.4756E+00  0.3897E+01
      7.661  0.5356E+00  0.3931E+01
      7.724  0.6264E+00  0.3971E+01
      7.788  0.7067E+00  0.4016E+01
      7.851  0.7395E+00  0.4063E+01
      7.915  0.7687E+00  0.4112E+01
      7.978  0.7606E+00  0.4160E+01
      8.042  0.6577E+00  0.4202E+01
      8.105  0.5768E+00  0.4238E+01
      8.169  0.6106E+00  0.4277E+01
      8.232  0.6479E+00  0.4318E+01
      8.296  0.5701E+00  0.4355E+01
      8.359  0.4692E+00  0.4384E+01
      8.423  0.4747E+00  0.4414E+01
      8.486  0.5245E+00  0.4448E+01
      8.550  0.5435E+00  0.4482E+01
      8.613  0.5470E+00  0.4517E+01
      8.677  0.5365E+00  0.4551E+01
      8.740  0.5025E+00  0.4583E+01
      8.804  0.5630E+00  0.4619E+01
      8.867  0.7978E+00  0.4669E+01
      8.931  0.1004E+01  0.4733E+01
      8.994  0.9663E+00  0.4795E+01
      9.058  0.7948E+00  0.4845E+01
      9.121  0.6836E+00  0.4888E+01
      9.185  0.6664E+00  0.4931E+01
      9.248  0.7116E+00  0.4976E+01
      9.312  0.7668E+00  0.5025E+01
      9.375  0.7783E+00  0.5074E+01
      9.439  0.7256E+00  0.5120E+01
      9.502  0.6298E+00  0.5160E+01
      9.566  0.5669E+00  0.5196E+01
      9.629  0.5531E+00  0.5231E+01
      9.693  0.5183E+00  0.5264E+01
      9.757  0.4566E+00  0.5293E+01
      9.820  0.3982E+00  0.5318E+01
      9.884  0.3887E+00  0.5343E+01
      9.947  0.4232E+00  0.5370E+01
     10.011  0.4431E+00  0.5398E+01
     10.074  0.4170E+00  0.5425E+01
     10.138  0.3822E+00  0.5449E+01
     10.201  0.3974E+00  0.5474E+01
     10.265  0.3984E+00  0.5499E+01
     10.328  0.3013E+00  0.5519E+01
     10.392  0.1873E+00  0.5531E+01
     10.455  0.1150E+00  0.5538E+01
     10.519  0.7353E-01  0.5542E+01
     10.582  0.5934E-01  0.5546E+01
     10.646  0.5363E-01  0.5550E+01
     10.709  0.3802E-01  0.5552E+01
     10.773  0.2315E-01  0.5554E+01
     10.836  0.1639E-01  0.5555E+01
     10.900  0.1020E-01  0.5555E+01
     10.963  0.4084E-02  0.5555E+01
     11.027  0.9199E-03  0.5556E+01
     11.090  0.1066E-03  0.5556E+01
     11.154  0.5994E-05  0.5556E+01
     11.217  0.1583E-06  0.5556E+01
     11.281  0.1932E-08  0.5556E+01
     11.344  0.1078E-10  0.5556E+01
     11.408  0.2735E-13  0.5556E+01
     11.471  0.3152E-16  0.5556E+01
     11.535  0.0000E+00  0.5556E+01
     11.598  0.0000E+00  0.5556E+01
     11.662  0.0000E+00  0.5556E+01
     11.725  0.0000E+00  0.5556E+01
     11.789  0.0000E+00  0.5556E+01
     11.852  0.0000E+00  0.5556E+01
