       N       E                     dE             d eps       ncg     rms          rms(c)
DAV:   1     0.538900500681E+02    0.53890E+02   -0.10531E+04  2800   0.839E+02
DAV:   2    -0.400945299746E+02   -0.93985E+02   -0.90232E+02  3615   0.135E+02
DAV:   3    -0.440489752827E+02   -0.39544E+01   -0.39262E+01  3695   0.266E+01    0.103E+01
DAV:   4    -0.436032988207E+02    0.44568E+00   -0.65940E-01  3730   0.411E+00    0.584E+00
DAV:   5    -0.433710393523E+02    0.23226E+00   -0.46586E-01  3330   0.274E+00    0.460E-01
DAV:   6    -0.433765858782E+02   -0.55465E-02   -0.19806E-02  3695   0.648E-01    0.241E-01
DAV:   7    -0.433787815326E+02   -0.21957E-02   -0.43247E-03  3155   0.282E-01    0.105E-01
DAV:   8    -0.433788264888E+02   -0.44956E-04   -0.13876E-04  2890   0.597E-02
   1 F= -.43378826E+02 E0= -.43378826E+02  d E =-.433788E+02
       N       E                     dE             d eps       ncg     rms          rms(c)
DAV:   1    -0.433947116367E+02   -0.15930E-01   -0.32985E+00  3200   0.724E+00
DAV:   2    -0.434023496478E+02   -0.76380E-02   -0.76380E-02  3575   0.122E+00
DAV:   3    -0.434024331652E+02   -0.83517E-04   -0.83517E-04  3585   0.155E-01    0.218E+00
DAV:   4    -0.433299988091E+02    0.72434E-01   -0.34885E-02  2910   0.664E-01    0.109E+00
DAV:   5    -0.432939131750E+02    0.36086E-01   -0.53579E-02  3270   0.836E-01    0.316E-01
DAV:   6    -0.432937298567E+02    0.18332E-03   -0.27727E-03  3345   0.247E-01    0.114E-01
DAV:   7    -0.432936478033E+02    0.82053E-04   -0.30376E-04  3285   0.655E-02
   2 F= -.43293648E+02 E0= -.43293648E+02  d E =0.851787E-01
       N       E                     dE             d eps       ncg     rms          rms(c)
DAV:   1    -0.434476199773E+02   -0.15389E+00   -0.16790E+00  3190   0.530E+00
DAV:   2    -0.434523620170E+02   -0.47420E-02   -0.47420E-02  3560   0.896E-01
DAV:   3    -0.434523969156E+02   -0.34899E-04   -0.34899E-04  3415   0.104E-01    0.156E+00
DAV:   4    -0.434162923571E+02    0.36105E-01   -0.17244E-02  2835   0.473E-01    0.762E-01
DAV:   5    -0.433985040544E+02    0.17788E-01   -0.26007E-02  3190   0.590E-01    0.246E-01
DAV:   6    -0.433984917127E+02    0.12342E-04   -0.13778E-03  3380   0.179E-01    0.100E-01
DAV:   7    -0.433984166544E+02    0.75058E-04   -0.12408E-04  2225   0.440E-02
   3 F= -.43398417E+02 E0= -.43398417E+02  d E =-.195902E-01
