 vasp.5.4.1 05Feb16 (build Feb 24 2020 14:33:01) complex                        
  
 executed on           IFC91_ompi date 2020.02.27  23:28:03
 running on   40 total cores
 distrk:  each k-point on   40 cores,    1 groups
 distr:  one band on NCORES_PER_BAND=   8 cores,    5 groups


--------------------------------------------------------------------------------------------------------


 INCAR:
 POTCAR:    PAW_PBE Si 05Jan2001                  
 POTCAR:    PAW_PBE Si 05Jan2001                  
   VRHFIN =Si: s2p2                                                             
   LEXCH  = PE                                                                  
   EATOM  =   103.0669 eV,    7.5752 Ry                                         
                                                                                
   TITEL  = PAW_PBE Si 05Jan2001                                                
   LULTRA =        F    use ultrasoft PP ?                                      
   IUNSCR =        1    unscreen: 0-lin 1-nonlin 2-no                           
   RPACOR =    1.500    partial core radius                                     
   POMASS =   28.085; ZVAL   =    4.000    mass and valenz                      
   RCORE  =    1.900    outmost cutoff radius                                   
   RWIGS  =    2.480; RWIGS  =    1.312    wigner-seitz radius (au A)           
   ENMAX  =  245.345; ENMIN  =  184.009 eV                                      
   ICORE  =        2    local potential                                         
   LCOR   =        T    correct aug charges                                     
   LPAW   =        T    paw PP                                                  
   EAUG   =  322.069                                                            
   DEXC   =    0.000                                                            
   RMAX   =    1.950    core radius for proj-oper                               
   RAUG   =    1.300    factor for augmentation sphere                          
   RDEP   =    1.993    radius for radial grids                                 
   RDEPT  =    1.837    core radius for aug-charge                              
                                                                                
   Atomic configuration                                                         
    6 entries                                                                   
     n  l   j            E        occ.                                          
     1  0  0.50     -1785.8828   2.0000                                         
     2  0  0.50      -139.4969   2.0000                                         
     2  1  1.50       -95.5546   6.0000                                         
     3  0  0.50       -10.8127   2.0000                                         
     3  1  0.50        -4.0811   2.0000                                         
     3  2  1.50        -4.0817   0.0000                                         
   Description                                                                  
     l       E           TYP  RCUT    TYP  RCUT                                 
     0    -10.8127223     23  1.900                                             
     0     -7.6451159     23  1.900                                             
     1     -4.0811372     23  1.900                                             
     1      2.4879257     23  1.900                                             
     2     -4.0817478      7  1.900                                             
  local pseudopotential read in
  partial core-charges read in
  partial kinetic energy density read in
  atomic valenz-charges read in
  non local Contribution for L=           0  read in
    real space projection operators read in
  non local Contribution for L=           0  read in
    real space projection operators read in
  non local Contribution for L=           1  read in
    real space projection operators read in
  non local Contribution for L=           1  read in
    real space projection operators read in
    PAW grid and wavefunctions read in
 
   number of l-projection  operators is LMAX  =           4
   number of lm-projection operators is LMMAX =           8
 
  PAW_PBE Si 05Jan2001                  :
 energy of atom  1       EATOM= -103.0669
 kinetic energy error for atom=    0.0012 (will be added to EATOM!!)
 
 
 POSCAR: Si dia                                  
  positions in direct lattice
  No initial velocities read in
 exchange correlation table for  LEXCH =        8
   RHO(1)=    0.500       N(1)  =     2000
   RHO(2)=  100.500       N(2)  =     4000
 


--------------------------------------------------------------------------------------------------------


 ion  position               nearest neighbor table
   1  0.000  0.000  0.000-   5 2.35   6 2.35   7 2.35   8 2.35
   2  0.000  0.500  0.500-   5 2.35   6 2.35   7 2.35   8 2.35
   3  0.500  0.000  0.500-   5 2.35   6 2.35   7 2.35   8 2.35
   4  0.500  0.500  0.000-   5 2.35   6 2.35   7 2.35   8 2.35
   5  0.250  0.250  0.250-   1 2.35   2 2.35   3 2.35   4 2.35
   6  0.750  0.750  0.250-   1 2.35   2 2.35   3 2.35   4 2.35
   7  0.750  0.250  0.750-   1 2.35   2 2.35   3 2.35   4 2.35
   8  0.250  0.750  0.750-   1 2.35   2 2.35   3 2.35   4 2.35
 
  LATTYP: Found a simple cubic cell.
 ALAT       =     5.4310000000
  
  Lattice vectors:
  
 A1 = (   5.4310000000,   0.0000000000,   0.0000000000)
 A2 = (   0.0000000000,   5.4310000000,   0.0000000000)
 A3 = (   0.0000000000,   0.0000000000,   5.4310000000)


Analysis of symmetry for initial positions (statically):
=====================================================================
 Subroutine PRICEL returns following result:
 
  LATTYP: Found a face centered cubic cell.
 ALAT       =     5.4310000000
  
  Lattice vectors:
  
 A1 = (   2.7155000000,   2.7155000000,   0.0000000000)
 A2 = (   2.7155000000,   0.0000000000,  -2.7155000000)
 A3 = (   0.0000000000,   2.7155000000,  -2.7155000000)
 
   4 primitive cells build up your supercell.
 

 Routine SETGRP: Setting up the symmetry group for a 
 simple cubic supercell.


 Subroutine GETGRP returns: Found 48 space group operations
 (whereof 24 operations were pure point group operations)
 out of a pool of 48 trial point group operations.


The static configuration has the point symmetry T_d .
 The point group associated with its full space group is O_h .


Analysis of symmetry for dynamics (positions and initial velocities):
=====================================================================
 Subroutine PRICEL returns following result:
 
  LATTYP: Found a face centered cubic cell.
 ALAT       =     5.4310000000
  
  Lattice vectors:
  
 A1 = (   2.7155000000,   2.7155000000,   0.0000000000)
 A2 = (   2.7155000000,   0.0000000000,  -2.7155000000)
 A3 = (   0.0000000000,   2.7155000000,  -2.7155000000)
 
   4 primitive cells build up your supercell.
 

 Routine SETGRP: Setting up the symmetry group for a 
 simple cubic supercell.


 Subroutine GETGRP returns: Found 48 space group operations
 (whereof 24 operations were pure point group operations)
 out of a pool of 48 trial point group operations.


The dynamic configuration has the point symmetry T_d .
 The point group associated with its full space group is O_h .


 Subroutine INISYM returns: Found 48 space group operations
 (whereof 24 operations are pure point group operations),
 and found     4 'primitive' translations

 
 
 KPOINTS: k-points                                

Automatic generation of k-mesh.
Space group operators:
 irot       det(A)        alpha          n_x          n_y          n_z        tau_x        tau_y        tau_z
    1     1.000000     0.000001     1.000000     0.000000     0.000000     0.000000     0.000000     0.000000
    2     1.000000   120.000000    -0.577350    -0.577350    -0.577350     0.000000     0.000000     0.000000
    3     1.000000   120.000000     0.577350     0.577350     0.577350     0.000000     0.000000     0.000000
    4    -1.000000    90.000000     0.000000     0.000000    -1.000000     0.000000     0.000000     0.000000
    5    -1.000000   180.000000     0.000000     0.707107     0.707107     0.000000     0.000000     0.000000
    6    -1.000000    90.000000     0.000000     1.000000     0.000000     0.000000     0.000000     0.000000
    7     1.000000   180.000000     0.000000     0.000000     1.000000     0.000000     0.000000     0.000000
    8     1.000000   120.000000    -0.577350     0.577350     0.577350     0.000000     0.000000     0.000000
    9     1.000000   120.000000    -0.577350     0.577350    -0.577350     0.000000     0.000000     0.000000
   10    -1.000000    90.000000     0.000000     0.000000     1.000000     0.000000     0.000000     0.000000
   11    -1.000000    90.000000    -1.000000     0.000000     0.000000     0.000000     0.000000     0.000000
   12    -1.000000   180.000000     0.707107     0.000000     0.707107     0.000000     0.000000     0.000000
   13     1.000000   120.000000     0.577350    -0.577350     0.577350     0.000000     0.000000     0.000000
   14     1.000000   120.000000    -0.577350    -0.577350     0.577350     0.000000     0.000000     0.000000
   15     1.000000   180.000000     1.000000     0.000000     0.000000     0.000000     0.000000     0.000000
   16    -1.000000    90.000000     0.000000    -1.000000     0.000000     0.000000     0.000000     0.000000
   17    -1.000000   180.000000     0.707107     0.707107     0.000000     0.000000     0.000000     0.000000
   18    -1.000000    90.000000     1.000000     0.000000     0.000000     0.000000     0.000000     0.000000
   19     1.000000   120.000000     0.577350    -0.577350    -0.577350     0.000000     0.000000     0.000000
   20     1.000000   180.000000     0.000000     1.000000     0.000000     0.000000     0.000000     0.000000
   21     1.000000   120.000000     0.577350     0.577350    -0.577350     0.000000     0.000000     0.000000
   22    -1.000000   180.000000     0.000000    -0.707107     0.707107     0.000000     0.000000     0.000000
   23    -1.000000   180.000000     0.707107    -0.707107     0.000000     0.000000     0.000000     0.000000
   24    -1.000000   180.000000     0.707107     0.000000    -0.707107     0.000000     0.000000     0.000000
   25    -1.000000     0.000001     1.000000     0.000000     0.000000     0.750000     0.750000    -0.750000
   26    -1.000000   120.000000    -0.577350    -0.577350    -0.577350     0.750000     0.750000    -0.750000
   27    -1.000000   120.000000     0.577350     0.577350     0.577350     0.750000     0.750000    -0.750000
   28     1.000000    90.000000     0.000000     0.000000    -1.000000     0.750000     0.750000    -0.750000
   29     1.000000   180.000000     0.000000     0.707107     0.707107     0.750000     0.750000    -0.750000
   30     1.000000    90.000000     0.000000     1.000000     0.000000     0.750000     0.750000    -0.750000
   31    -1.000000   180.000000     0.000000     0.000000     1.000000     0.750000     0.750000    -0.750000
   32    -1.000000   120.000000    -0.577350     0.577350     0.577350     0.750000     0.750000    -0.750000
   33    -1.000000   120.000000    -0.577350     0.577350    -0.577350     0.750000     0.750000    -0.750000
   34     1.000000    90.000000     0.000000     0.000000     1.000000     0.750000     0.750000    -0.750000
   35     1.000000    90.000000    -1.000000     0.000000     0.000000     0.750000     0.750000    -0.750000
   36     1.000000   180.000000     0.707107     0.000000     0.707107     0.750000     0.750000    -0.750000
   37    -1.000000   120.000000     0.577350    -0.577350     0.577350     0.750000     0.750000    -0.750000
   38    -1.000000   120.000000    -0.577350    -0.577350     0.577350     0.750000     0.750000    -0.750000
   39    -1.000000   180.000000     1.000000     0.000000     0.000000     0.750000     0.750000    -0.750000
   40     1.000000    90.000000     0.000000    -1.000000     0.000000     0.750000     0.750000    -0.750000
   41     1.000000   180.000000     0.707107     0.707107     0.000000     0.750000     0.750000    -0.750000
   42     1.000000    90.000000     1.000000     0.000000     0.000000     0.750000     0.750000    -0.750000
   43    -1.000000   120.000000     0.577350    -0.577350    -0.577350     0.750000     0.750000    -0.750000
   44    -1.000000   180.000000     0.000000     1.000000     0.000000     0.750000     0.750000    -0.750000
   45    -1.000000   120.000000     0.577350     0.577350    -0.577350     0.750000     0.750000    -0.750000
   46     1.000000   180.000000     0.000000    -0.707107     0.707107     0.750000     0.750000    -0.750000
   47     1.000000   180.000000     0.707107    -0.707107     0.000000     0.750000     0.750000    -0.750000
   48     1.000000   180.000000     0.707107     0.000000    -0.707107     0.750000     0.750000    -0.750000
 
 Subroutine IBZKPT returns following result:
 ===========================================
 
 Found     56 irreducible k-points:
 
 Following reciprocal coordinates:
            Coordinates               Weight
  0.000000  0.000000  0.000000      1.000000
  0.090909  0.000000  0.000000      6.000000
  0.181818  0.000000  0.000000      6.000000
  0.272727  0.000000  0.000000      6.000000
  0.363636  0.000000  0.000000      6.000000
  0.454545  0.000000  0.000000      6.000000
  0.090909  0.090909  0.000000     12.000000
  0.181818  0.090909  0.000000     24.000000
  0.272727  0.090909  0.000000     24.000000
  0.363636  0.090909  0.000000     24.000000
  0.454545  0.090909  0.000000     24.000000
  0.181818  0.181818  0.000000     12.000000
  0.272727  0.181818  0.000000     24.000000
  0.363636  0.181818  0.000000     24.000000
  0.454545  0.181818  0.000000     24.000000
  0.272727  0.272727  0.000000     12.000000
  0.363636  0.272727  0.000000     24.000000
  0.454545  0.272727  0.000000     24.000000
  0.363636  0.363636  0.000000     12.000000
  0.454545  0.363636  0.000000     24.000000
  0.454545  0.454545  0.000000     12.000000
  0.090909  0.090909  0.090909      8.000000
  0.181818  0.090909  0.090909     24.000000
  0.272727  0.090909  0.090909     24.000000
  0.363636  0.090909  0.090909     24.000000
  0.454545  0.090909  0.090909     24.000000
  0.181818  0.181818  0.090909     24.000000
  0.272727  0.181818  0.090909     48.000000
  0.363636  0.181818  0.090909     48.000000
  0.454545  0.181818  0.090909     48.000000
  0.272727  0.272727  0.090909     24.000000
  0.363636  0.272727  0.090909     48.000000
  0.454545  0.272727  0.090909     48.000000
  0.363636  0.363636  0.090909     24.000000
  0.454545  0.363636  0.090909     48.000000
  0.454545  0.454545  0.090909     24.000000
  0.181818  0.181818  0.181818      8.000000
  0.272727  0.181818  0.181818     24.000000
  0.363636  0.181818  0.181818     24.000000
  0.454545  0.181818  0.181818     24.000000
  0.272727  0.272727  0.181818     24.000000
  0.363636  0.272727  0.181818     48.000000
  0.454545  0.272727  0.181818     48.000000
  0.363636  0.363636  0.181818     24.000000
  0.454545  0.363636  0.181818     48.000000
  0.454545  0.454545  0.181818     24.000000
  0.272727  0.272727  0.272727      8.000000
  0.363636  0.272727  0.272727     24.000000
  0.454545  0.272727  0.272727     24.000000
  0.363636  0.363636  0.272727     24.000000
  0.454545  0.363636  0.272727     48.000000
  0.454545  0.454545  0.272727     24.000000
  0.363636  0.363636  0.363636      8.000000
  0.454545  0.363636  0.363636     24.000000
  0.454545  0.454545  0.363636     24.000000
  0.454545  0.454545  0.454545      8.000000
 
 Following cartesian coordinates:
            Coordinates               Weight
  0.000000  0.000000  0.000000      1.000000
  0.090909  0.000000  0.000000      6.000000
  0.181818  0.000000  0.000000      6.000000
  0.272727  0.000000  0.000000      6.000000
  0.363636  0.000000  0.000000      6.000000
  0.454545  0.000000  0.000000      6.000000
  0.090909  0.090909  0.000000     12.000000
  0.181818  0.090909  0.000000     24.000000
  0.272727  0.090909  0.000000     24.000000
  0.363636  0.090909  0.000000     24.000000
  0.454545  0.090909  0.000000     24.000000
  0.181818  0.181818  0.000000     12.000000
  0.272727  0.181818  0.000000     24.000000
  0.363636  0.181818  0.000000     24.000000
  0.454545  0.181818  0.000000     24.000000
  0.272727  0.272727  0.000000     12.000000
  0.363636  0.272727  0.000000     24.000000
  0.454545  0.272727  0.000000     24.000000
  0.363636  0.363636  0.000000     12.000000
  0.454545  0.363636  0.000000     24.000000
  0.454545  0.454545  0.000000     12.000000
  0.090909  0.090909  0.090909      8.000000
  0.181818  0.090909  0.090909     24.000000
  0.272727  0.090909  0.090909     24.000000
  0.363636  0.090909  0.090909     24.000000
  0.454545  0.090909  0.090909     24.000000
  0.181818  0.181818  0.090909     24.000000
  0.272727  0.181818  0.090909     48.000000
  0.363636  0.181818  0.090909     48.000000
  0.454545  0.181818  0.090909     48.000000
  0.272727  0.272727  0.090909     24.000000
  0.363636  0.272727  0.090909     48.000000
  0.454545  0.272727  0.090909     48.000000
  0.363636  0.363636  0.090909     24.000000
  0.454545  0.363636  0.090909     48.000000
  0.454545  0.454545  0.090909     24.000000
  0.181818  0.181818  0.181818      8.000000
  0.272727  0.181818  0.181818     24.000000
  0.363636  0.181818  0.181818     24.000000
  0.454545  0.181818  0.181818     24.000000
  0.272727  0.272727  0.181818     24.000000
  0.363636  0.272727  0.181818     48.000000
  0.454545  0.272727  0.181818     48.000000
  0.363636  0.363636  0.181818     24.000000
  0.454545  0.363636  0.181818     48.000000
  0.454545  0.454545  0.181818     24.000000
  0.272727  0.272727  0.272727      8.000000
  0.363636  0.272727  0.272727     24.000000
  0.454545  0.272727  0.272727     24.000000
  0.363636  0.363636  0.272727     24.000000
  0.454545  0.363636  0.272727     48.000000
  0.454545  0.454545  0.272727     24.000000
  0.363636  0.363636  0.363636      8.000000
  0.454545  0.363636  0.363636     24.000000
  0.454545  0.454545  0.363636     24.000000
  0.454545  0.454545  0.454545      8.000000
 


--------------------------------------------------------------------------------------------------------




 Dimension of arrays:
   k-points           NKPTS =     56   k-points in BZ     NKDIM =     56   number of bands    NBANDS=     25
   number of dos      NEDOS =    301   number of ions     NIONS =      8
   non local maximal  LDIM  =      4   non local SUM 2l+1 LMDIM =      8
   total plane-waves  NPLWV =  46656
   max r-space proj   IRMAX =      1   max aug-charges    IRDMAX=   9936
   dimension x,y,z NGX =    36 NGY =   36 NGZ =   36
   dimension x,y,z NGXF=    72 NGYF=   72 NGZF=   72
   support grid    NGXF=    72 NGYF=   72 NGZF=   72
   ions per type =               8
 NGX,Y,Z   is equivalent  to a cutoff of  11.02, 11.02, 11.02 a.u.
 NGXF,Y,Z  is equivalent  to a cutoff of  22.04, 22.04, 22.04 a.u.


 I would recommend the setting:
   dimension x,y,z NGX =    35 NGY =   35 NGZ =   35
 SYSTEM =  diamond Si                              
 POSCAR =  Si dia                                  

 Startparameter for this run:
   NWRITE =      2    write-flag & timer
   PREC   = accura    normal or accurate (medium, high low for compatibility)
   ISTART =      0    job   : 0-new  1-cont  2-samecut
   ICHARG =      2    charge: 1-file 2-atom 10-const
   ISPIN  =      1    spin polarized calculation?
   LNONCOLLINEAR =      F non collinear calculations
   LSORBIT =      F    spin-orbit coupling
   INIWAV =      1    electr: 0-lowe 1-rand  2-diag
   LASPH  =      F    aspherical Exc in radial PAW
   METAGGA=      F    non-selfconsistent MetaGGA calc.

 Electronic Relaxation 1
   ENCUT  =  400.0 eV  29.40 Ry    5.42 a.u.   8.86  8.86  8.86*2*pi/ulx,y,z
   ENINI  =  400.0     initial cutoff
   ENAUG  =  322.1 eV  augmentation charge cutoff
   NELM   =     60;   NELMIN=  0; NELMDL=  3     # of ELM steps 
   EDIFF  = 0.1E-03   stopping-criterion for ELM
   LREAL  =      F    real-space projection
   NLSPLINE    = F    spline interpolate recip. space projectors
   LCOMPAT=      F    compatible to vasp.4.4
   GGA_COMPAT  = T    GGA compatible to vasp.4.4-vasp.4.6
   LMAXPAW     = -100 max onsite density
   LMAXMIX     =    2 max onsite mixed and CHGCAR
   VOSKOWN=      0    Vosko Wilk Nusair interpolation
   ROPT   =    0.00000
 Ionic relaxation
   EDIFFG = -.1E-01   stopping-criterion for IOM
   NSW    =      9    number of steps for IOM
   NBLOCK =      1;   KBLOCK =      9    inner block; outer block 
   IBRION =      2    ionic relax: 0-MD 1-quasi-New 2-CG
   NFREE  =      1    steps in history (QN), initial steepest desc. (CG)
   ISIF   =      3    stress and relaxation
   IWAVPR =     11    prediction:  0-non 1-charg 2-wave 3-comb
   ISYM   =      2    0-nonsym 1-usesym 2-fastsym
   LCORR  =      T    Harris-Foulkes like correction to forces

   POTIM  = 1.0000    time-step for ionic-motion
   TEIN   =    0.0    initial temperature
   TEBEG  =    0.0;   TEEND  =   0.0 temperature during run
   SMASS  =  -3.00    Nose mass-parameter (am)
   estimated Nose-frequenzy (Omega)   =  0.10E-29 period in steps =****** mass=  -0.674E-27a.u.
   SCALEE = 1.0000    scale energy and forces
   NPACO  =    256;   APACO  = 16.0  distance and # of slots for P.C.
   PSTRESS=    0.0 pullay stress

  Mass of Ions in am
   POMASS =  28.09
  Ionic Valenz
   ZVAL   =   4.00
  Atomic Wigner-Seitz radii
   RWIGS  =  -1.00
  virtual crystal weights 
   VCA    =   1.00
   NELECT =      32.0000    total number of electrons
   NUPDOWN=      -1.0000    fix difference up-down

 DOS related values:
   EMIN   =  10.00;   EMAX   =-10.00  energy-range for DOS
   EFERMI =   0.00
   ISMEAR =     0;   SIGMA  =   0.10  broadening in eV -4-tet -1-fermi 0-gaus

 Electronic relaxation 2 (details)
   IALGO  =     38    algorithm
   LDIAG  =      T    sub-space diagonalisation (order eigenvalues)
   LSUBROT=      F    optimize rotation matrix (better conditioning)
   TURBO    =      0    0=normal 1=particle mesh
   IRESTART =      0    0=no restart 2=restart with 2 vectors
   NREBOOT  =      0    no. of reboots
   NMIN     =      0    reboot dimension
   EREF     =   0.00    reference energy to select bands
   IMIX   =      4    mixing-type and parameters
     AMIX     =   0.40;   BMIX     =  1.00
     AMIX_MAG =   1.60;   BMIX_MAG =  1.00
     AMIN     =   0.10
     WC   =   100.;   INIMIX=   1;  MIXPRE=   1;  MAXMIX= -45

 Intra band minimization:
   WEIMIN = 0.0010     energy-eigenvalue tresh-hold
   EBREAK =  0.10E-05  absolut break condition
   DEPER  =   0.30     relativ break condition  

   TIME   =   0.40     timestep for ELM

  volume/ion in A,a.u.               =      20.02       135.13
  Fermi-wavevector in a.u.,A,eV,Ry     =   0.956999  1.808467 12.460868  0.915848
  Thomas-Fermi vector in A             =   2.085978
 
 Write flags
   LWAVE  =      T    write WAVECAR
   LCHARG =      T    write CHGCAR
   LVTOT  =      F    write LOCPOT, total local potential
   LVHAR  =      F    write LOCPOT, Hartree potential only
   LELF   =      F    write electronic localiz. function (ELF)
   LORBIT =      0    0 simple, 1 ext, 2 COOP (PROOUT)


 Dipole corrections
   LMONO  =      F    monopole corrections only (constant potential shift)
   LDIPOL =      F    correct potential (dipole corrections)
   IDIPOL =      0    1-x, 2-y, 3-z, 4-all directions 
   EPSILON=  1.0000000 bulk dielectric constant

 Exchange correlation treatment:
   GGA     =    --    GGA type
   LEXCH   =     8    internal setting for exchange type
   VOSKOWN=      0    Vosko Wilk Nusair interpolation
   LHFCALC =     F    Hartree Fock is set to
   LHFONE  =     F    Hartree Fock one center treatment
   AEXX    =    0.0000 exact exchange contribution

 Linear response parameters
   LEPSILON=     F    determine dielectric tensor
   LRPA    =     F    only Hartree local field effects (RPA)
   LNABLA  =     F    use nabla operator in PAW spheres
   LVEL    =     F    velocity operator in full k-point grid
   LINTERFAST=   F  fast interpolation
   KINTER  =     0    interpolate to denser k-point grid
   CSHIFT  =0.1000    complex shift for real part using Kramers Kronig
   OMEGAMAX=  -1.0    maximum frequency
   DEG_THRESHOLD= 0.2000000E-02 threshold for treating states as degnerate
   RTIME   =    0.100 relaxation time in fs

 Orbital magnetization related:
   ORBITALMAG=     F  switch on orbital magnetization
   LCHIMAG   =     F  perturbation theory with respect to B field
   DQ        =  0.001000  dq finite difference perturbation B field



--------------------------------------------------------------------------------------------------------


 conjugate gradient relaxation of ions
 charge density and potential will be updated during run
 non-spin polarized calculation
 Variant of blocked Davidson
 Davidson routine will perform the subspace rotation
 perform sub-space diagonalisation
    after iterative eigenvector-optimisation
 modified Broyden-mixing scheme, WC =      100.0
 initial mixing is a Kerker type mixing with AMIX =  0.4000 and BMIX =      1.0000
 Hartree-type preconditioning will be used
 using additional bands            9
 reciprocal scheme for non local part
 use partial core corrections
 calculate Harris-corrections to forces 
   (improved forces if not selfconsistent)
 use gradient corrections 
 use of overlap-Matrix (Vanderbilt PP)
 Gauss-broadening in eV      SIGMA  =   0.10


--------------------------------------------------------------------------------------------------------


  energy-cutoff  :      400.00
  volume of cell :      160.19
      direct lattice vectors                 reciprocal lattice vectors
     5.431000000  0.000000000  0.000000000     0.184128153  0.000000000  0.000000000
     0.000000000  5.431000000  0.000000000     0.000000000  0.184128153  0.000000000
     0.000000000  0.000000000  5.431000000     0.000000000  0.000000000  0.184128153

  length of vectors
     5.431000000  5.431000000  5.431000000     0.184128153  0.184128153  0.184128153


 
 k-points in units of 2pi/SCALE and weight: k-points                                
   0.00000000  0.00000000  0.00000000       0.001
   0.09090909  0.00000000  0.00000000       0.005
   0.18181818  0.00000000  0.00000000       0.005
   0.27272727  0.00000000  0.00000000       0.005
   0.36363636  0.00000000  0.00000000       0.005
   0.45454545  0.00000000  0.00000000       0.005
   0.09090909  0.09090909  0.00000000       0.009
   0.18181818  0.09090909  0.00000000       0.018
   0.27272727  0.09090909  0.00000000       0.018
   0.36363636  0.09090909  0.00000000       0.018
   0.45454545  0.09090909  0.00000000       0.018
   0.18181818  0.18181818  0.00000000       0.009
   0.27272727  0.18181818  0.00000000       0.018
   0.36363636  0.18181818  0.00000000       0.018
   0.45454545  0.18181818  0.00000000       0.018
   0.27272727  0.27272727  0.00000000       0.009
   0.36363636  0.27272727  0.00000000       0.018
   0.45454545  0.27272727  0.00000000       0.018
   0.36363636  0.36363636  0.00000000       0.009
   0.45454545  0.36363636  0.00000000       0.018
   0.45454545  0.45454545  0.00000000       0.009
   0.09090909  0.09090909  0.09090909       0.006
   0.18181818  0.09090909  0.09090909       0.018
   0.27272727  0.09090909  0.09090909       0.018
   0.36363636  0.09090909  0.09090909       0.018
   0.45454545  0.09090909  0.09090909       0.018
   0.18181818  0.18181818  0.09090909       0.018
   0.27272727  0.18181818  0.09090909       0.036
   0.36363636  0.18181818  0.09090909       0.036
   0.45454545  0.18181818  0.09090909       0.036
   0.27272727  0.27272727  0.09090909       0.018
   0.36363636  0.27272727  0.09090909       0.036
   0.45454545  0.27272727  0.09090909       0.036
   0.36363636  0.36363636  0.09090909       0.018
   0.45454545  0.36363636  0.09090909       0.036
   0.45454545  0.45454545  0.09090909       0.018
   0.18181818  0.18181818  0.18181818       0.006
   0.27272727  0.18181818  0.18181818       0.018
   0.36363636  0.18181818  0.18181818       0.018
   0.45454545  0.18181818  0.18181818       0.018
   0.27272727  0.27272727  0.18181818       0.018
   0.36363636  0.27272727  0.18181818       0.036
   0.45454545  0.27272727  0.18181818       0.036
   0.36363636  0.36363636  0.18181818       0.018
   0.45454545  0.36363636  0.18181818       0.036
   0.45454545  0.45454545  0.18181818       0.018
   0.27272727  0.27272727  0.27272727       0.006
   0.36363636  0.27272727  0.27272727       0.018
   0.45454545  0.27272727  0.27272727       0.018
   0.36363636  0.36363636  0.27272727       0.018
   0.45454545  0.36363636  0.27272727       0.036
   0.45454545  0.45454545  0.27272727       0.018
   0.36363636  0.36363636  0.36363636       0.006
   0.45454545  0.36363636  0.36363636       0.018
   0.45454545  0.45454545  0.36363636       0.018
   0.45454545  0.45454545  0.45454545       0.006
 
 k-points in reciprocal lattice and weights: k-points                                
   0.00000000  0.00000000  0.00000000       0.001
   0.09090909  0.00000000  0.00000000       0.005
   0.18181818  0.00000000  0.00000000       0.005
   0.27272727  0.00000000  0.00000000       0.005
   0.36363636  0.00000000  0.00000000       0.005
   0.45454545  0.00000000  0.00000000       0.005
   0.09090909  0.09090909  0.00000000       0.009
   0.18181818  0.09090909  0.00000000       0.018
   0.27272727  0.09090909  0.00000000       0.018
   0.36363636  0.09090909  0.00000000       0.018
   0.45454545  0.09090909  0.00000000       0.018
   0.18181818  0.18181818  0.00000000       0.009
   0.27272727  0.18181818  0.00000000       0.018
   0.36363636  0.18181818  0.00000000       0.018
   0.45454545  0.18181818  0.00000000       0.018
   0.27272727  0.27272727  0.00000000       0.009
   0.36363636  0.27272727  0.00000000       0.018
   0.45454545  0.27272727  0.00000000       0.018
   0.36363636  0.36363636  0.00000000       0.009
   0.45454545  0.36363636  0.00000000       0.018
   0.45454545  0.45454545  0.00000000       0.009
   0.09090909  0.09090909  0.09090909       0.006
   0.18181818  0.09090909  0.09090909       0.018
   0.27272727  0.09090909  0.09090909       0.018
   0.36363636  0.09090909  0.09090909       0.018
   0.45454545  0.09090909  0.09090909       0.018
   0.18181818  0.18181818  0.09090909       0.018
   0.27272727  0.18181818  0.09090909       0.036
   0.36363636  0.18181818  0.09090909       0.036
   0.45454545  0.18181818  0.09090909       0.036
   0.27272727  0.27272727  0.09090909       0.018
   0.36363636  0.27272727  0.09090909       0.036
   0.45454545  0.27272727  0.09090909       0.036
   0.36363636  0.36363636  0.09090909       0.018
   0.45454545  0.36363636  0.09090909       0.036
   0.45454545  0.45454545  0.09090909       0.018
   0.18181818  0.18181818  0.18181818       0.006
   0.27272727  0.18181818  0.18181818       0.018
   0.36363636  0.18181818  0.18181818       0.018
   0.45454545  0.18181818  0.18181818       0.018
   0.27272727  0.27272727  0.18181818       0.018
   0.36363636  0.27272727  0.18181818       0.036
   0.45454545  0.27272727  0.18181818       0.036
   0.36363636  0.36363636  0.18181818       0.018
   0.45454545  0.36363636  0.18181818       0.036
   0.45454545  0.45454545  0.18181818       0.018
   0.27272727  0.27272727  0.27272727       0.006
   0.36363636  0.27272727  0.27272727       0.018
   0.45454545  0.27272727  0.27272727       0.018
   0.36363636  0.36363636  0.27272727       0.018
   0.45454545  0.36363636  0.27272727       0.036
   0.45454545  0.45454545  0.27272727       0.018
   0.36363636  0.36363636  0.36363636       0.006
   0.45454545  0.36363636  0.36363636       0.018
   0.45454545  0.45454545  0.36363636       0.018
   0.45454545  0.45454545  0.45454545       0.006
 
 position of ions in fractional coordinates (direct lattice) 
   0.00000000  0.00000000  0.00000000
   0.00000000  0.50000000  0.50000000
   0.50000000  0.00000000  0.50000000
   0.50000000  0.50000000  0.00000000
   0.25000000  0.25000000  0.25000000
   0.75000000  0.75000000  0.25000000
   0.75000000  0.25000000  0.75000000
   0.25000000  0.75000000  0.75000000
 
 position of ions in cartesian coordinates  (Angst):
   0.00000000  0.00000000  0.00000000
   0.00000000  2.71550000  2.71550000
   2.71550000  0.00000000  2.71550000
   2.71550000  2.71550000  0.00000000
   1.35775000  1.35775000  1.35775000
   4.07325000  4.07325000  1.35775000
   4.07325000  1.35775000  4.07325000
   1.35775000  4.07325000  4.07325000
 


--------------------------------------------------------------------------------------------------------


 k-point  1 :   0.0000 0.0000 0.0000  plane waves:    2945
 k-point  2 :   0.0909 0.0000 0.0000  plane waves:    2921
 k-point  3 :   0.1818 0.0000 0.0000  plane waves:    2902
 k-point  4 :   0.2727 0.0000 0.0000  plane waves:    2906
 k-point  5 :   0.3636 0.0000 0.0000  plane waves:    2894
 k-point  6 :   0.4545 0.0000 0.0000  plane waves:    2890
 k-point  7 :   0.0909 0.0909 0.0000  plane waves:    2907
 k-point  8 :   0.1818 0.0909 0.0000  plane waves:    2911
 k-point  9 :   0.2727 0.0909 0.0000  plane waves:    2912
 k-point 10 :   0.3636 0.0909 0.0000  plane waves:    2893
 k-point 11 :   0.4545 0.0909 0.0000  plane waves:    2895
 k-point 12 :   0.1818 0.1818 0.0000  plane waves:    2911
 k-point 13 :   0.2727 0.1818 0.0000  plane waves:    2908
 k-point 14 :   0.3636 0.1818 0.0000  plane waves:    2906
 k-point 15 :   0.4545 0.1818 0.0000  plane waves:    2908
 k-point 16 :   0.2727 0.2727 0.0000  plane waves:    2922
 k-point 17 :   0.3636 0.2727 0.0000  plane waves:    2920
 k-point 18 :   0.4545 0.2727 0.0000  plane waves:    2906
 k-point 19 :   0.3636 0.3636 0.0000  plane waves:    2918
 k-point 20 :   0.4545 0.3636 0.0000  plane waves:    2909
 k-point 21 :   0.4545 0.4545 0.0000  plane waves:    2908
 k-point 22 :   0.0909 0.0909 0.0909  plane waves:    2918
 k-point 23 :   0.1818 0.0909 0.0909  plane waves:    2911
 k-point 24 :   0.2727 0.0909 0.0909  plane waves:    2910
 k-point 25 :   0.3636 0.0909 0.0909  plane waves:    2902
 k-point 26 :   0.4545 0.0909 0.0909  plane waves:    2901
 k-point 27 :   0.1818 0.1818 0.0909  plane waves:    2908
 k-point 28 :   0.2727 0.1818 0.0909  plane waves:    2915
 k-point 29 :   0.3636 0.1818 0.0909  plane waves:    2906
 k-point 30 :   0.4545 0.1818 0.0909  plane waves:    2907
 k-point 31 :   0.2727 0.2727 0.0909  plane waves:    2907
 k-point 32 :   0.3636 0.2727 0.0909  plane waves:    2912
 k-point 33 :   0.4545 0.2727 0.0909  plane waves:    2904
 k-point 34 :   0.3636 0.3636 0.0909  plane waves:    2908
 k-point 35 :   0.4545 0.3636 0.0909  plane waves:    2913
 k-point 36 :   0.4545 0.4545 0.0909  plane waves:    2922
 k-point 37 :   0.1818 0.1818 0.1818  plane waves:    2893
 k-point 38 :   0.2727 0.1818 0.1818  plane waves:    2900
 k-point 39 :   0.3636 0.1818 0.1818  plane waves:    2900
 k-point 40 :   0.4545 0.1818 0.1818  plane waves:    2905
 k-point 41 :   0.2727 0.2727 0.1818  plane waves:    2907
 k-point 42 :   0.3636 0.2727 0.1818  plane waves:    2915
 k-point 43 :   0.4545 0.2727 0.1818  plane waves:    2904
 k-point 44 :   0.3636 0.3636 0.1818  plane waves:    2916
 k-point 45 :   0.4545 0.3636 0.1818  plane waves:    2910
 k-point 46 :   0.4545 0.4545 0.1818  plane waves:    2918
 k-point 47 :   0.2727 0.2727 0.2727  plane waves:    2911
 k-point 48 :   0.3636 0.2727 0.2727  plane waves:    2908
 k-point 49 :   0.4545 0.2727 0.2727  plane waves:    2918
 k-point 50 :   0.3636 0.3636 0.2727  plane waves:    2921
 k-point 51 :   0.4545 0.3636 0.2727  plane waves:    2919
 k-point 52 :   0.4545 0.4545 0.2727  plane waves:    2931
 k-point 53 :   0.3636 0.3636 0.3636  plane waves:    2923
 k-point 54 :   0.4545 0.3636 0.3636  plane waves:    2929
 k-point 55 :   0.4545 0.4545 0.3636  plane waves:    2931
 k-point 56 :   0.4545 0.4545 0.4545  plane waves:    2932

 maximum and minimum number of plane-waves per node :       384      346

 maximum number of plane-waves:      2945
 maximum index in each direction: 
   IXMAX=    8   IYMAX=    8   IZMAX=    8
   IXMIN=   -9   IYMIN=   -9   IZMIN=   -9

 NGX is ok and might be reduce to  36
 NGY is ok and might be reduce to  36
 NGZ is ok and might be reduce to  36

 total amount of memory used by VASP on root node    34274. kBytes
========================================================================

   base      :      30000. kBytes
   nonl-proj :       1373. kBytes
   fftplans  :        502. kBytes
   grid      :        694. kBytes
   one-center:          3. kBytes
   wavefun   :       1702. kBytes
 
     INWAV:  cpu time    0.0000: real time    0.0000
 Broyden mixing: mesh for mixing (old mesh)
   NGX = 17   NGY = 17   NGZ = 17
  (NGX  = 72   NGY  = 72   NGZ  = 72)
  gives a total of   4913 points

 initial charge density was supplied:
 charge density of overlapping atoms calculated
 number of electron      32.0000000 magnetization 
 keeping initial charge density in first step


--------------------------------------------------------------------------------------------------------


 Maximum index for augmentation-charges          266 (set IRDMAX)


--------------------------------------------------------------------------------------------------------


 First call to EWALD:  gamma=   0.326
 Maximum number of real-space cells 3x 3x 3
 Maximum number of reciprocal cells 3x 3x 3

 FEWALD executed in parallel
    FEWALD:  cpu time    0.0012: real time    0.0012


----------------------------------------- Iteration    1(   1)  ---------------------------------------


    POTLOK:  cpu time    0.0152: real time    0.1363
    SETDIJ:  cpu time    0.0016: real time    0.0017
     EDDAV:  cpu time    0.8056: real time    0.9377
       DOS:  cpu time    0.0011: real time    0.0011
    --------------------------------------------
      LOOP:  cpu time    0.8247: real time    1.0828

 eigenvalue-minimisations  :  2800
 total energy-change (2. order) : 0.5389005E+02  (-0.1053081E+04)
 number of electron      32.0000000 magnetization 
 augmentation part       32.0000000 magnetization 

 Free energy of the ion-electron system (eV)
  ---------------------------------------------------
  alpha Z        PSCENC =        13.44915721
  Ewald energy   TEWEN  =      -914.08579262
  -Hartree energ DENC   =       -44.03749844
  -exchange      EXHF   =         0.00000000
  -V(xc)+E(xc)   XCENC  =       -74.41615916
  PAW double counting   =       704.99039692     -564.24414232
  entropy T*S    EENTRO =        -0.01175619
  eigenvalues    EBANDS =       107.71987484
  atomic energy  EATOM  =       824.52596983
  Solvation  Ediel_sol  =         0.00000000
  ---------------------------------------------------
  free energy    TOTEN  =        53.89005007 eV

  energy without entropy =       53.90180626  energy(sigma->0) =       53.89592817


--------------------------------------------------------------------------------------------------------




----------------------------------------- Iteration    1(   2)  ---------------------------------------


     EDDAV:  cpu time    0.6104: real time    0.6398
       DOS:  cpu time    0.0011: real time    0.0011
    --------------------------------------------
      LOOP:  cpu time    0.6123: real time    0.6542

 eigenvalue-minimisations  :  3615
 total energy-change (2. order) :-0.9398458E+02  (-0.9023219E+02)
 number of electron      32.0000000 magnetization 
 augmentation part       32.0000000 magnetization 

 Free energy of the ion-electron system (eV)
  ---------------------------------------------------
  alpha Z        PSCENC =        13.44915721
  Ewald energy   TEWEN  =      -914.08579262
  -Hartree energ DENC   =       -44.03749844
  -exchange      EXHF   =         0.00000000
  -V(xc)+E(xc)   XCENC  =       -74.41615916
  PAW double counting   =       704.99039692     -564.24414232
  entropy T*S    EENTRO =        -0.00001335
  eigenvalues    EBANDS =        13.72355196
  atomic energy  EATOM  =       824.52596983
  Solvation  Ediel_sol  =         0.00000000
  ---------------------------------------------------
  free energy    TOTEN  =       -40.09452997 eV

  energy without entropy =      -40.09451662  energy(sigma->0) =      -40.09452330


--------------------------------------------------------------------------------------------------------




----------------------------------------- Iteration    1(   3)  ---------------------------------------


     EDDAV:  cpu time    0.6132: real time    0.6149
       DOS:  cpu time    0.0008: real time    0.0008
    CHARGE:  cpu time    0.0318: real time    0.0347
    MIXING:  cpu time    0.0011: real time    0.0013
    --------------------------------------------
      LOOP:  cpu time    0.6474: real time    0.6545

 eigenvalue-minimisations  :  3695
 total energy-change (2. order) :-0.3954445E+01  (-0.3926218E+01)
 number of electron      31.9999993 magnetization 
 augmentation part       -1.8775692 magnetization 

 Broyden mixing:
  rms(total) = 0.10327E+01    rms(broyden)= 0.10327E+01
  rms(prec ) = 0.13935E+01
  weight for this iteration     100.00

 Free energy of the ion-electron system (eV)
  ---------------------------------------------------
  alpha Z        PSCENC =        13.44915721
  Ewald energy   TEWEN  =      -914.08579262
  -Hartree energ DENC   =       -44.03749844
  -exchange      EXHF   =         0.00000000
  -V(xc)+E(xc)   XCENC  =       -74.41615916
  PAW double counting   =       704.99039692     -564.24414232
  entropy T*S    EENTRO =        -0.00000000
  eigenvalues    EBANDS =         9.76909329
  atomic energy  EATOM  =       824.52596983
  Solvation  Ediel_sol  =         0.00000000
  ---------------------------------------------------
  free energy    TOTEN  =       -44.04897528 eV

  energy without entropy =      -44.04897528  energy(sigma->0) =      -44.04897528


--------------------------------------------------------------------------------------------------------




----------------------------------------- Iteration    1(   4)  ---------------------------------------


    POTLOK:  cpu time    0.0058: real time    0.0058
    SETDIJ:  cpu time    0.0022: real time    0.0022
     EDDAV:  cpu time    0.6115: real time    0.6131
       DOS:  cpu time    0.0009: real time    0.0009
    CHARGE:  cpu time    0.0314: real time    0.0314
    MIXING:  cpu time    0.0009: real time    0.0010
    --------------------------------------------
      LOOP:  cpu time    0.6531: real time    0.6572

 eigenvalue-minimisations  :  3730
 total energy-change (2. order) : 0.4456765E+00  (-0.6594013E-01)
 number of electron      31.9999993 magnetization 
 augmentation part       -1.8594764 magnetization 

 Broyden mixing:
  rms(total) = 0.58399E+00    rms(broyden)= 0.58399E+00
  rms(prec ) = 0.80854E+00
  weight for this iteration     100.00

 eigenvalues of (default mixing * dielectric matrix)
  average eigenvalue GAMMA=   2.2612
  2.2612

 Free energy of the ion-electron system (eV)
  ---------------------------------------------------
  alpha Z        PSCENC =        13.44915721
  Ewald energy   TEWEN  =      -914.08579262
  -Hartree energ DENC   =       -49.94261575
  -exchange      EXHF   =         0.00000000
  -V(xc)+E(xc)   XCENC  =       -73.46978057
  PAW double counting   =      1601.09248333    -1460.78701971
  entropy T*S    EENTRO =        -0.00000000
  eigenvalues    EBANDS =        15.61429946
  atomic energy  EATOM  =       824.52596983
  Solvation  Ediel_sol  =         0.00000000
  ---------------------------------------------------
  free energy    TOTEN  =       -43.60329882 eV

  energy without entropy =      -43.60329882  energy(sigma->0) =      -43.60329882


--------------------------------------------------------------------------------------------------------




----------------------------------------- Iteration    1(   5)  ---------------------------------------


    POTLOK:  cpu time    0.0057: real time    0.0057
    SETDIJ:  cpu time    0.0022: real time    0.0022
     EDDAV:  cpu time    0.5806: real time    0.5822
       DOS:  cpu time    0.0010: real time    0.0010
    CHARGE:  cpu time    0.0312: real time    0.0312
    MIXING:  cpu time    0.0008: real time    0.0008
    --------------------------------------------
      LOOP:  cpu time    0.6219: real time    0.6270

 eigenvalue-minimisations  :  3330
 total energy-change (2. order) : 0.2322595E+00  (-0.4658559E-01)
 number of electron      31.9999993 magnetization 
 augmentation part       -1.8329107 magnetization 

 Broyden mixing:
  rms(total) = 0.46029E-01    rms(broyden)= 0.46029E-01
  rms(prec ) = 0.64466E-01
  weight for this iteration     100.00

 eigenvalues of (default mixing * dielectric matrix)
  average eigenvalue GAMMA=   1.7766
  1.0462  2.5070

 Free energy of the ion-electron system (eV)
  ---------------------------------------------------
  alpha Z        PSCENC =        13.44915721
  Ewald energy   TEWEN  =      -914.08579262
  -Hartree energ DENC   =       -59.34589917
  -exchange      EXHF   =         0.00000000
  -V(xc)+E(xc)   XCENC  =       -71.95623019
  PAW double counting   =      3425.91887743    -3286.16332616
  entropy T*S    EENTRO =        -0.00000023
  eigenvalues    EBANDS =        24.28620454
  atomic energy  EATOM  =       824.52596983
  Solvation  Ediel_sol  =         0.00000000
  ---------------------------------------------------
  free energy    TOTEN  =       -43.37103935 eV

  energy without entropy =      -43.37103912  energy(sigma->0) =      -43.37103924


--------------------------------------------------------------------------------------------------------




----------------------------------------- Iteration    1(   6)  ---------------------------------------


    POTLOK:  cpu time    0.0077: real time    0.0081
    SETDIJ:  cpu time    0.0022: real time    0.0022
     EDDAV:  cpu time    0.6638: real time    0.6656
       DOS:  cpu time    0.0010: real time    0.0010
    CHARGE:  cpu time    0.0303: real time    0.0304
    MIXING:  cpu time    0.0007: real time    0.0007
    --------------------------------------------
      LOOP:  cpu time    0.7061: real time    0.7109

 eigenvalue-minimisations  :  3695
 total energy-change (2. order) :-0.5546526E-02  (-0.1980590E-02)
 number of electron      31.9999993 magnetization 
 augmentation part       -1.8335421 magnetization 

 Broyden mixing:
  rms(total) = 0.24140E-01    rms(broyden)= 0.24140E-01
  rms(prec ) = 0.35104E-01
  weight for this iteration     100.00

 eigenvalues of (default mixing * dielectric matrix)
  average eigenvalue GAMMA=   2.0048
  0.8747  2.5698  2.5698

 Free energy of the ion-electron system (eV)
  ---------------------------------------------------
  alpha Z        PSCENC =        13.44915721
  Ewald energy   TEWEN  =      -914.08579262
  -Hartree energ DENC   =       -59.68660737
  -exchange      EXHF   =         0.00000000
  -V(xc)+E(xc)   XCENC  =       -71.87823661
  PAW double counting   =      3539.85779715    -3400.07177329
  entropy T*S    EENTRO =        -0.00000021
  eigenvalues    EBANDS =        24.51290004
  atomic energy  EATOM  =       824.52596983
  Solvation  Ediel_sol  =         0.00000000
  ---------------------------------------------------
  free energy    TOTEN  =       -43.37658588 eV

  energy without entropy =      -43.37658567  energy(sigma->0) =      -43.37658577


--------------------------------------------------------------------------------------------------------




----------------------------------------- Iteration    1(   7)  ---------------------------------------


    POTLOK:  cpu time    0.0058: real time    0.0058
    SETDIJ:  cpu time    0.0013: real time    0.0013
     EDDAV:  cpu time    0.5993: real time    0.6031
       DOS:  cpu time    0.0010: real time    0.0010
    CHARGE:  cpu time    0.0460: real time    0.0463
    MIXING:  cpu time    0.0006: real time    0.0006
    --------------------------------------------
      LOOP:  cpu time    0.6543: real time    0.6609

 eigenvalue-minimisations  :  3155
 total energy-change (2. order) :-0.2195654E-02  (-0.4324726E-03)
 number of electron      31.9999993 magnetization 
 augmentation part       -1.8360650 magnetization 

 Broyden mixing:
  rms(total) = 0.10529E-01    rms(broyden)= 0.10529E-01
  rms(prec ) = 0.12614E-01
  weight for this iteration     100.00

 eigenvalues of (default mixing * dielectric matrix)
  average eigenvalue GAMMA=   1.7282
  2.4832  2.4832  0.9732  0.9732

 Free energy of the ion-electron system (eV)
  ---------------------------------------------------
  alpha Z        PSCENC =        13.44915721
  Ewald energy   TEWEN  =      -914.08579262
  -Hartree energ DENC   =       -59.52702094
  -exchange      EXHF   =         0.00000000
  -V(xc)+E(xc)   XCENC  =       -71.87463465
  PAW double counting   =      3509.98941071    -3370.12772672
  entropy T*S    EENTRO =        -0.00000012
  eigenvalues    EBANDS =        24.27185577
  atomic energy  EATOM  =       824.52596983
  Solvation  Ediel_sol  =         0.00000000
  ---------------------------------------------------
  free energy    TOTEN  =       -43.37878153 eV

  energy without entropy =      -43.37878141  energy(sigma->0) =      -43.37878147


--------------------------------------------------------------------------------------------------------




----------------------------------------- Iteration    1(   8)  ---------------------------------------


    POTLOK:  cpu time    0.0058: real time    0.0059
    SETDIJ:  cpu time    0.0020: real time    0.0022
     EDDAV:  cpu time    0.5853: real time    0.6105
       DOS:  cpu time    0.0010: real time    0.0010
    --------------------------------------------
      LOOP:  cpu time    0.5946: real time    0.6884

 eigenvalue-minimisations  :  2890
 total energy-change (2. order) :-0.4495615E-04  (-0.1387577E-04)
 number of electron      31.9999993 magnetization 
 augmentation part       -1.8360650 magnetization 

 Free energy of the ion-electron system (eV)
  ---------------------------------------------------
  alpha Z        PSCENC =        13.44915721
  Ewald energy   TEWEN  =      -914.08579262
  -Hartree energ DENC   =       -59.63808748
  -exchange      EXHF   =         0.00000000
  -V(xc)+E(xc)   XCENC  =       -71.86097991
  PAW double counting   =      3502.17643819    -3362.32391191
  entropy T*S    EENTRO =        -0.00000013
  eigenvalues    EBANDS =        24.37838034
  atomic energy  EATOM  =       824.52596983
  Solvation  Ediel_sol  =         0.00000000
  ---------------------------------------------------
  free energy    TOTEN  =       -43.37882649 eV

  energy without entropy =      -43.37882636  energy(sigma->0) =      -43.37882642


--------------------------------------------------------------------------------------------------------




 average (electrostatic) potential at core
  the test charge radii are     0.9892
  (the norm of the test charge is              1.0000)
       1 -83.2536       2 -83.2536       3 -83.2536       4 -83.2536       5 -83.2536
       6 -83.2536       7 -83.2536       8 -83.2536
 
 
 
 E-fermi :   6.1057     XC(G=0):  -9.4114     alpha+bet :-11.9779


 k-point     1 :       0.0000    0.0000    0.0000
  band No.  band energies     occupation 
      1      -6.1339      2.00000
      2      -1.9901      2.00000
      3      -1.9901      2.00000
      4      -1.9901      2.00000
      5      -1.9901      2.00000
      6      -1.9901      2.00000
      7      -1.9901      2.00000
      8       2.9742      2.00000
      9       2.9742      2.00000
     10       2.9742      2.00000
     11       2.9742      2.00000
     12       2.9742      2.00000
     13       2.9742      2.00000
     14       5.8222      1.99994
     15       5.8222      1.99994
     16       5.8222      1.99994
     17       6.5328      0.00000
     18       6.5328      0.00000
     19       6.5328      0.00000
     20       6.5328      0.00000
     21       6.5328      0.00000
     22       6.5328      0.00000
     23       8.3893      0.00000
     24       8.3893      0.00000
     25       8.3893      0.00000

 k-point     2 :       0.0909    0.0000    0.0000
  band No.  band energies     occupation 
      1      -6.0978      2.00000
      2      -2.6708      2.00000
      3      -1.9782      2.00000
      4      -1.9782      2.00000
      5      -1.9782      2.00000
      6      -1.9782      2.00000
      7      -1.2664      2.00000
      8       2.8699      2.00000
      9       2.8699      2.00000
     10       2.8699      2.00000
     11       2.8699      2.00000
     12       3.0069      2.00000
     13       3.0069      2.00000
     14       5.5882      2.00000
     15       5.6753      2.00000
     16       5.6753      2.00000
     17       6.4189      0.00001
     18       6.7285      0.00000
     19       6.7285      0.00000
     20       6.7285      0.00000
     21       6.7285      0.00000
     22       6.7444      0.00000
     23       8.3014      0.00000
     24       8.5808      0.00000
     25       8.5808      0.00000

 k-point     3 :       0.1818    0.0000    0.0000
  band No.  band energies     occupation 
      1      -5.9894      2.00000
      2      -3.3020      2.00000
      3      -1.9454      2.00000
      4      -1.9454      2.00000
      5      -1.9454      2.00000
      6      -1.9454      2.00000
      7      -0.5070      2.00000
      8       2.6214      2.00000
      9       2.6214      2.00000
     10       2.6214      2.00000
     11       2.6214      2.00000
     12       3.1044      2.00000
     13       3.1044      2.00000
     14       5.0210      2.00000
     15       5.3277      2.00000
     16       5.3277      2.00000
     17       6.3976      0.00004
     18       7.0586      0.00000
     19       7.2521      0.00000
     20       7.2521      0.00000
     21       7.2521      0.00000
     22       7.2521      0.00000
     23       8.0683      0.00000
     24       9.0612      0.00000
     25       9.0612      0.00000

 k-point     4 :       0.2727    0.0000    0.0000
  band No.  band energies     occupation 
      1      -5.8093      2.00000
      2      -3.8783      2.00000
      3      -1.9005      2.00000
      4      -1.9005      2.00000
      5      -1.9005      2.00000
      6      -1.9005      2.00000
      7       0.2797      2.00000
      8       2.3424      2.00000
      9       2.3424      2.00000
     10       2.3424      2.00000
     11       2.3424      2.00000
     12       3.2660      2.00000
     13       3.2660      2.00000
     14       4.3027      2.00000
     15       4.9113      2.00000
     16       4.9113      2.00000
     17       6.4627      0.00000
     18       7.4775      0.00000
     19       7.7543      0.00000
     20       7.9950      0.00000
     21       7.9950      0.00000
     22       7.9950      0.00000
     23       7.9950      0.00000
     24       9.6971      0.00000
     25       9.6971      0.00000

 k-point     5 :       0.3636    0.0000    0.0000
  band No.  band energies     occupation 
      1      -5.5584      2.00000
      2      -4.3953      2.00000
      3      -1.8570      2.00000
      4      -1.8570      2.00000
      5      -1.8570      2.00000
      6      -1.8570      2.00000
      7       1.0850      2.00000
      8       2.1156      2.00000
      9       2.1156      2.00000
     10       2.1156      2.00000
     11       2.1156      2.00000
     12       3.4898      2.00000
     13       3.4898      2.00000
     14       3.5222      2.00000
     15       4.4953      2.00000
     16       4.4953      2.00000
     17       6.6073      0.00000
     18       7.4176      0.00000
     19       8.0009      0.00000
     20       8.8774      0.00000
     21       8.8774      0.00000
     22       8.8774      0.00000
     23       8.8774      0.00000
     24       9.9597      0.00000
     25      10.4159      0.00000

 k-point     6 :       0.4545    0.0000    0.0000
  band No.  band energies     occupation 
      1      -5.2379      2.00000
      2      -4.8495      2.00000
      3      -1.8300      2.00000
      4      -1.8300      2.00000
      5      -1.8300      2.00000
      6      -1.8300      2.00000
      7       1.8999      2.00000
      8       1.9902      2.00000
      9       1.9902      2.00000
     10       1.9902      2.00000
     11       1.9902      2.00000
     12       2.7158      2.00000
     13       3.7730      2.00000
     14       3.7730      2.00000
     15       4.1109      2.00000
     16       4.1109      2.00000
     17       6.8231      0.00000
     18       7.0987      0.00000
     19       8.6192      0.00000
     20       9.3039      0.00000
     21       9.8110      0.00000
     22       9.8110      0.00000
     23       9.8110      0.00000
     24       9.8110      0.00000
     25      11.1366      0.00000

 k-point     7 :       0.0909    0.0909    0.0000
  band No.  band energies     occupation 
      1      -6.0617      2.00000
      2      -2.6518      2.00000
      3      -2.6518      2.00000
      4      -2.0235      2.00000
      5      -1.9119      2.00000
      6      -1.2646      2.00000
      7      -1.2646      2.00000
      8       2.5624      2.00000
      9       2.8872      2.00000
     10       2.8872      2.00000
     11       2.9222      2.00000
     12       2.9222      2.00000
     13       3.0321      2.00000
     14       5.1919      2.00000
     15       5.5281      2.00000
     16       5.7897      1.99999
     17       6.5997      0.00000
     18       6.6232      0.00000
     19       6.6232      0.00000
     20       6.9296      0.00000
     21       6.9296      0.00000
     22       7.1871      0.00000
     23       8.4636      0.00000
     24       8.5267      0.00000
     25       8.6065      0.00000

 k-point     8 :       0.1818    0.0909    0.0000
  band No.  band energies     occupation 
      1      -5.9536      2.00000
      2      -3.2780      2.00000
      3      -2.5969      2.00000
      4      -2.0562      2.00000
      5      -1.8219      2.00000
      6      -1.2631      2.00000
      7      -0.5198      2.00000
      8       2.2234      2.00000
      9       2.6016      2.00000
     10       2.7232      2.00000
     11       2.9731      2.00000
     12       2.9858      2.00000
     13       3.0449      2.00000
     14       4.6162      2.00000
     15       5.1796      2.00000
     16       5.5869      2.00000
     17       6.6082      0.00000
     18       6.8605      0.00000
     19       7.1631      0.00000
     20       7.2312      0.00000
     21       7.4319      0.00000
     22       7.8690      0.00000
     23       8.2640      0.00000
     24       8.8772      0.00000
     25       8.9860      0.00000

 k-point     9 :       0.2727    0.0909    0.0000
  band No.  band energies     occupation 
      1      -5.7740      2.00000
      2      -3.8507      2.00000
      3      -2.5124      2.00000
      4      -2.0892      2.00000
      5      -1.7115      2.00000
      6      -1.2725      2.00000
      7       0.2456      2.00000
      8       1.9371      2.00000
      9       2.2723      2.00000
     10       2.5117      2.00000
     11       2.7960      2.00000
     12       3.1261      2.00000
     13       3.2385      2.00000
     14       3.9693      2.00000
     15       4.7615      2.00000
     16       5.1682      2.00000
     17       6.6775      0.00000
     18       7.4445      0.00000
     19       7.6368      0.00000
     20       7.9199      0.00000
     21       7.9580      0.00000
     22       8.1550      0.00000
     23       8.6984      0.00000
     24       9.3842      0.00000
     25       9.6303      0.00000

 k-point    10 :       0.3636    0.0909    0.0000
  band No.  band energies     occupation 
      1      -5.5238      2.00000
      2      -4.3651      2.00000
      3      -2.4095      2.00000
      4      -2.1368      2.00000
      5      -1.5899      2.00000
      6      -1.3060      2.00000
      7       1.0202      2.00000
      8       1.7542      2.00000
      9       1.9826      2.00000
     10       2.3655      2.00000
     11       2.5747      2.00000
     12       3.2763      2.00000
     13       3.3441      2.00000
     14       3.5029      2.00000
     15       4.3444      2.00000
     16       4.6918      2.00000
     17       6.8243      0.00000
     18       7.6278      0.00000
     19       8.1458      0.00000
     20       8.2415      0.00000
     21       8.8136      0.00000
     22       9.0186      0.00000
     23       9.6225      0.00000
     24       9.8542      0.00000
     25      10.3697      0.00000

 k-point    11 :       0.4545    0.0909    0.0000
  band No.  band energies     occupation 
      1      -5.2043      2.00000
      2      -4.8173      2.00000
      3      -2.3028      2.00000
      4      -2.2082      2.00000
      5      -1.4715      2.00000
      6      -1.3728      2.00000
      7       1.7009      2.00000
      8       1.7819      2.00000
      9       1.7916      2.00000
     10       2.3261      2.00000
     11       2.4024      2.00000
     12       2.5473      2.00000
     13       3.6237      2.00000
     14       3.8371      2.00000
     15       3.9600      2.00000
     16       4.2373      2.00000
     17       7.0401      0.00000
     18       7.3134      0.00000
     19       8.7490      0.00000
     20       9.1614      0.00000
     21       9.4101      0.00000
     22       9.7847      0.00000
     23       9.8132      0.00000
     24      10.4359      0.00000
     25      10.5227      0.00000

 k-point    12 :       0.1818    0.1818    0.0000
  band No.  band energies     occupation 
      1      -5.8463      2.00000
      2      -3.2073      2.00000
      3      -3.2073      2.00000
      4      -2.1668      2.00000
      5      -1.6777      2.00000
      6      -0.5624      2.00000
      7      -0.5624      2.00000
      8       1.8766      2.00000
      9       2.6601      2.00000
     10       2.6601      2.00000
     11       2.9105      2.00000
     12       2.9105      2.00000
     13       3.2031      2.00000
     14       4.0347      2.00000
     15       4.8279      2.00000
     16       5.6797      2.00000
     17       6.7978      0.00000
     18       7.1596      0.00000
     19       7.1596      0.00000
     20       7.7077      0.00000
     21       7.7077      0.00000
     22       8.6375      0.00000
     23       8.6862      0.00000
     24       8.7836      0.00000
     25       8.8558      0.00000

 k-point    13 :       0.2727    0.1818    0.0000
  band No.  band energies     occupation 
      1      -5.6682      2.00000
      2      -3.7687      2.00000
      3      -3.0945      2.00000
      4      -2.2907      2.00000
      5      -1.5101      2.00000
      6      -0.6437      2.00000
      7       0.1425      2.00000
      8       1.6330      2.00000
      9       2.2945      2.00000
     10       2.7857      2.00000
     11       2.7936      2.00000
     12       3.1859      2.00000
     13       3.2122      2.00000
     14       3.4239      2.00000
     15       4.4061      2.00000
     16       5.4444      2.00000
     17       7.1189      0.00000
     18       7.2355      0.00000
     19       7.9246      0.00000
     20       8.0834      0.00000
     21       8.4052      0.00000
     22       8.4715      0.00000
     23       9.0159      0.00000
     24       9.4518      0.00000
     25       9.5135      0.00000

 k-point    14 :       0.3636    0.1818    0.0000
  band No.  band energies     occupation 
      1      -5.4202      2.00000
      2      -4.2749      2.00000
      3      -2.9476      2.00000
      4      -2.4366      2.00000
      5      -1.3230      2.00000
      6      -0.7696      2.00000
      7       0.8377      2.00000
      8       1.5203      2.00000
      9       1.9584      2.00000
     10       2.7337      2.00000
     11       2.8012      2.00000
     12       2.9983      2.00000
     13       3.0773      2.00000
     14       3.5488      2.00000
     15       3.9865      2.00000
     16       5.0014      2.00000
     17       7.3840      0.00000
     18       7.7560      0.00000
     19       8.1620      0.00000
     20       8.5594      0.00000
     21       8.8229      0.00000
     22       9.2395      0.00000
     23       9.4627      0.00000
     24      10.2079      0.00000
     25      10.4574      0.00000

 k-point    15 :       0.4545    0.1818    0.0000
  band No.  band energies     occupation 
      1      -5.1039      2.00000
      2      -4.7212      2.00000
      3      -2.7787      2.00000
      4      -2.6031      2.00000
      5      -1.1262      2.00000
      6      -0.9354      2.00000
      7       1.5133      2.00000
      8       1.5453      2.00000
      9       1.6985      2.00000
     10       2.1664      2.00000
     11       2.7781      2.00000
     12       2.9069      2.00000
     13       3.2699      2.00000
     14       3.6024      2.00000
     15       3.9908      2.00000
     16       4.4897      2.00000
     17       7.5964      0.00000
     18       7.8613      0.00000
     19       8.5958      0.00000
     20       9.1247      0.00000
     21       9.5062      0.00000
     22       9.6786      0.00000
     23       9.8056      0.00000
     24      10.2825      0.00000
     25      10.3923      0.00000

 k-point    16 :       0.2727    0.2727    0.0000
  band No.  band energies     occupation 
      1      -5.4927      2.00000
      2      -3.6356      2.00000
      3      -3.6356      2.00000
      4      -2.5130      2.00000
      5      -1.2885      2.00000
      6      -0.0279      2.00000
      7      -0.0279      2.00000
      8       1.4589      2.00000
      9       2.4023      2.00000
     10       2.4023      2.00000
     11       2.8514      2.00000
     12       3.1643      2.00000
     13       3.1643      2.00000
     14       3.4791      2.00000
     15       3.9807      2.00000
     16       5.4658      2.00000
     17       7.1180      0.00000
     18       8.0030      0.00000
     19       8.0030      0.00000
     20       8.7498      0.00000
     21       8.7498      0.00000
     22       8.8840      0.00000
     23       9.0563      0.00000
     24       9.3051      0.00000
     25      10.4113      0.00000

 k-point    17 :       0.3636    0.2727    0.0000
  band No.  band energies     occupation 
      1      -5.2486      2.00000
      2      -4.1271      2.00000
      3      -3.4570      2.00000
      4      -2.7540      2.00000
      5      -1.0444      2.00000
      6      -0.2532      2.00000
      7       0.5678      2.00000
      8       1.4234      2.00000
      9       2.0332      2.00000
     10       2.2793      2.00000
     11       2.5897      2.00000
     12       3.2080      2.00000
     13       3.5373      2.00000
     14       3.5596      2.00000
     15       3.6357      2.00000
     16       5.1886      2.00000
     17       7.4911      0.00000
     18       8.1483      0.00000
     19       8.8753      0.00000
     20       8.8996      0.00000
     21       9.0457      0.00000
     22       9.1909      0.00000
     23       9.5289      0.00000
     24       9.9939      0.00000
     25      10.1390      0.00000

 k-point    18 :       0.4545    0.2727    0.0000
  band No.  band energies     occupation 
      1      -4.9378      2.00000
      2      -4.5628      2.00000
      3      -3.2418      2.00000
      4      -3.0023      2.00000
      5      -0.7820      2.00000
      6      -0.5122      2.00000
      7       1.1449      2.00000
      8       1.5191      2.00000
      9       1.7122      2.00000
     10       1.7296      2.00000
     11       2.8504      2.00000
     12       3.1771      2.00000
     13       3.3146      2.00000
     14       3.4482      2.00000
     15       4.1703      2.00000
     16       4.7158      2.00000
     17       8.1689      0.00000
     18       8.3517      0.00000
     19       8.6007      0.00000
     20       9.0337      0.00000
     21       9.4174      0.00000
     22       9.7030      0.00000
     23       9.8811      0.00000
     24       9.9593      0.00000
     25      10.3763      0.00000

 k-point    19 :       0.3636    0.3636    0.0000
  band No.  band energies     occupation 
      1      -5.0104      2.00000
      2      -3.9257      2.00000
      3      -3.9257      2.00000
      4      -3.0772      2.00000
      5      -0.7464      2.00000
      6       0.2473      2.00000
      7       0.2473      2.00000
      8       1.4580      2.00000
      9       1.7556      2.00000
     10       2.1979      2.00000
     11       2.1979      2.00000
     12       3.1394      2.00000
     13       3.7563      2.00000
     14       3.7563      2.00000
     15       3.8442      2.00000
     16       5.1372      2.00000
     17       7.5415      0.00000
     18       8.8173      0.00000
     19       9.0368      0.00000
     20       9.0368      0.00000
     21       9.5119      0.00000
     22       9.5119      0.00000
     23       9.5728      0.00000
     24       9.8716      0.00000
     25      10.0210      0.00000

 k-point    20 :       0.4545    0.3636    0.0000
  band No.  band energies     occupation 
      1      -4.7081      2.00000
      2      -4.3449      2.00000
      3      -3.6770      2.00000
      4      -3.3899      2.00000
      5      -0.4273      2.00000
      6      -0.0918      2.00000
      7       0.7425      2.00000
      8       1.2431      2.00000
      9       1.6103      2.00000
     10       1.8633      2.00000
     11       2.4436      2.00000
     12       2.7613      2.00000
     13       3.8790      2.00000
     14       3.9396      2.00000
     15       4.3226      2.00000
     16       4.8207      2.00000
     17       7.9506      0.00000
     18       8.6478      0.00000
     19       8.8553      0.00000
     20       9.1178      0.00000
     21       9.2247      0.00000
     22       9.4462      0.00000
     23      10.0066      0.00000
     24      10.4817      0.00000
     25      10.6405      0.00000

 k-point    21 :       0.4545    0.4545    0.0000
  band No.  band energies     occupation 
      1      -4.4179      2.00000
      2      -4.0720      2.00000
      3      -4.0720      2.00000
      4      -3.7507      2.00000
      5      -0.0546      2.00000
      6       0.3373      2.00000
      7       0.3373      2.00000
      8       0.7820      2.00000
      9       1.8047      2.00000
     10       2.0878      2.00000
     11       2.0878      2.00000
     12       2.3916      2.00000
     13       4.2719      2.00000
     14       4.3844      2.00000
     15       4.3844      2.00000
     16       4.7211      2.00000
     17       8.0291      0.00000
     18       8.4422      0.00000
     19       8.4422      0.00000
     20       8.5005      0.00000
     21      10.1686      0.00000
     22      10.1686      0.00000
     23      10.2327      0.00000
     24      10.5621      0.00000
     25      11.0427      0.00000

 k-point    22 :       0.0909    0.0909    0.0909
  band No.  band energies     occupation 
      1      -6.0257      2.00000
      2      -2.6358      2.00000
      3      -2.6358      2.00000
      4      -2.6358      2.00000
      5      -1.2632      2.00000
      6      -1.2632      2.00000
      7      -1.2632      2.00000
      8       2.6038      2.00000
      9       2.6038      2.00000
     10       2.6038      2.00000
     11       3.0643      2.00000
     12       3.0643      2.00000
     13       3.0643      2.00000
     14       4.8368      2.00000
     15       5.6547      2.00000
     16       5.6547      2.00000
     17       6.6144      0.00000
     18       6.6144      0.00000
     19       6.6144      0.00000
     20       7.2671      0.00000
     21       7.2671      0.00000
     22       7.2671      0.00000
     23       8.4199      0.00000
     24       8.6362      0.00000
     25       8.6362      0.00000

 k-point    23 :       0.1818    0.0909    0.0909
  band No.  band energies     occupation 
      1      -5.9179      2.00000
      2      -3.2554      2.00000
      3      -2.5909      2.00000
      4      -2.5909      2.00000
      5      -1.2616      2.00000
      6      -1.2616      2.00000
      7      -0.5364      2.00000
      8       2.2730      2.00000
      9       2.2730      2.00000
     10       2.7286      2.00000
     11       3.0225      2.00000
     12       3.0225      2.00000
     13       3.1608      2.00000
     14       4.2711      2.00000
     15       5.3288      2.00000
     16       5.5274      2.00000
     17       6.6698      0.00000
     18       6.8915      0.00000
     19       6.8915      0.00000
     20       7.4955      0.00000
     21       7.9289      0.00000
     22       7.9289      0.00000
     23       8.3619      0.00000
     24       8.6869      0.00000
     25       9.0739      0.00000

 k-point    24 :       0.2727    0.0909    0.0909
  band No.  band energies     occupation 
      1      -5.7388      2.00000
      2      -3.8239      2.00000
      3      -2.5272      2.00000
      4      -2.5272      2.00000
      5      -1.2650      2.00000
      6      -1.2650      2.00000
      7       0.2039      2.00000
      8       1.9911      2.00000
      9       1.9911      2.00000
     10       2.8478      2.00000
     11       2.8478      2.00000
     12       2.9382      2.00000
     13       3.3204      2.00000
     14       3.6590      2.00000
     15       4.9302      2.00000
     16       5.1162      2.00000
     17       6.7815      0.00000
     18       7.4785      0.00000
     19       7.4785      0.00000
     20       7.8537      0.00000
     21       8.1049      0.00000
     22       8.7497      0.00000
     23       8.7497      0.00000
     24       9.1339      0.00000
     25       9.6552      0.00000

 k-point    25 :       0.3636    0.0909    0.0909
  band No.  band energies     occupation 
      1      -5.4893      2.00000
      2      -4.3353      2.00000
      3      -2.4627      2.00000
      4      -2.4627      2.00000
      5      -1.2755      2.00000
      6      -1.2755      2.00000
      7       0.9425      2.00000
      8       1.7987      2.00000
      9       1.7987      2.00000
     10       2.6562      2.00000
     11       2.6562      2.00000
     12       3.0221      2.00000
     13       3.2342      2.00000
     14       3.5412      2.00000
     15       4.5271      2.00000
     16       4.5964      2.00000
     17       6.9552      0.00000
     18       7.7857      0.00000
     19       8.2747      0.00000
     20       8.2747      0.00000
     21       8.3287      0.00000
     22       9.6650      0.00000
     23       9.6650      0.00000
     24       9.7023      0.00000
     25      10.3101      0.00000

 k-point    26 :       0.4545    0.0909    0.0909
  band No.  band energies     occupation 
      1      -5.1709      2.00000
      2      -4.7854      2.00000
      3      -2.4209      2.00000
      4      -2.4209      2.00000
      5      -1.2860      2.00000
      6      -1.2860      2.00000
      7       1.6644      2.00000
      8       1.7057      2.00000
      9       1.7057      2.00000
     10       2.3586      2.00000
     11       2.5361      2.00000
     12       2.5361      2.00000
     13       3.6167      2.00000
     14       3.8200      2.00000
     15       4.0786      2.00000
     16       4.1516      2.00000
     17       7.1878      0.00000
     18       7.4701      0.00000
     19       8.9047      0.00000
     20       9.1898      0.00000
     21       9.1898      0.00000
     22       9.5303      0.00000
     23      10.1771      0.00000
     24      10.1771      0.00000
     25      10.7031      0.00000

 k-point    27 :       0.1818    0.1818    0.0909
  band No.  band energies     occupation 
      1      -5.8109      2.00000
      2      -3.1895      2.00000
      3      -3.1895      2.00000
      4      -2.5791      2.00000
      5      -1.2549      2.00000
      6      -0.5890      2.00000
      7      -0.5890      2.00000
      8       1.9463      2.00000
      9       2.4218      2.00000
     10       2.4218      2.00000
     11       3.1336      2.00000
     12       3.1336      2.00000
     13       3.2342      2.00000
     14       3.7097      2.00000
     15       5.0761      2.00000
     16       5.5770      2.00000
     17       6.8384      0.00000
     18       6.9842      0.00000
     19       6.9842      0.00000
     20       8.1087      0.00000
     21       8.1087      0.00000
     22       8.3962      0.00000
     23       8.6868      0.00000
     24       8.8034      0.00000
     25       9.1000      0.00000

 k-point    28 :       0.2727    0.1818    0.0909
  band No.  band energies     occupation 
      1      -5.6334      2.00000
      2      -3.7446      2.00000
      3      -3.0863      2.00000
      4      -2.5794      2.00000
      5      -1.2344      2.00000
      6      -0.6820      2.00000
      7       0.0807      2.00000
      8       1.7230      2.00000
      9       2.1477      2.00000
     10       2.6671      2.00000
     11       3.0071      2.00000
     12       3.1223      2.00000
     13       3.2468      2.00000
     14       3.3222      2.00000
     15       4.6700      2.00000
     16       5.3559      2.00000
     17       7.1364      0.00000
     18       7.1602      0.00000
     19       7.5788      0.00000
     20       8.4083      0.00000
     21       8.4167      0.00000
     22       8.8934      0.00000
     23       8.9048      0.00000
     24       9.5394      0.00000
     25       9.5576      0.00000

 k-point    29 :       0.3636    0.1818    0.0909
  band No.  band energies     occupation 
      1      -5.3863      2.00000
      2      -4.2469      2.00000
      3      -2.9573      2.00000
      4      -2.6147      2.00000
      5      -1.1834      2.00000
      6      -0.8110      2.00000
      7       0.7298      2.00000
      8       1.6238      2.00000
      9       1.9248      2.00000
     10       2.5354      2.00000
     11       2.8995      2.00000
     12       2.9980      2.00000
     13       3.1239      2.00000
     14       3.5955      2.00000
     15       4.2376      2.00000
     16       4.9167      2.00000
     17       7.3437      0.00000
     18       7.7944      0.00000
     19       8.1894      0.00000
     20       8.3727      0.00000
     21       8.8248      0.00000
     22       9.3382      0.00000
     23       9.7877      0.00000
     24      10.1524      0.00000
     25      10.4758      0.00000

 k-point    30 :       0.4545    0.1818    0.0909
  band No.  band energies     occupation 
      1      -5.0713      2.00000
      2      -4.6905      2.00000
      3      -2.8199      2.00000
      4      -2.6979      2.00000
      5      -1.0886      2.00000
      6      -0.9563      2.00000
      7       1.3508      2.00000
      8       1.6421      2.00000
      9       1.7520      2.00000
     10       1.9485      2.00000
     11       2.8864      2.00000
     12       2.9760      2.00000
     13       3.3887      2.00000
     14       3.8075      2.00000
     15       3.9627      2.00000
     16       4.4188      2.00000
     17       7.5989      0.00000
     18       7.8894      0.00000
     19       8.6303      0.00000
     20       9.2628      0.00000
     21       9.3428      0.00000
     22       9.6378      0.00000
     23       9.7800      0.00000
     24      10.2681      0.00000
     25      10.3155      0.00000

 k-point    31 :       0.2727    0.2727    0.0909
  band No.  band energies     occupation 
      1      -5.4586      2.00000
      2      -3.6169      2.00000
[...]
     20       8.1034      0.00000
     21       9.1438      0.00000
     22       9.3302      0.00000
     23       9.3302      0.00000
     24       9.3366      0.00000
     25      10.6372      0.00000

 k-point    45 :       0.4545    0.3636    0.1818
  band No.  band energies     occupation 
      1      -4.6897      2.00000
      2      -4.3498      2.00000
      3      -3.7631      2.00000
      4      -3.5520      2.00000
      5      -0.9316      2.00000
      6      -0.6970      2.00000
      7      -0.0205      2.00000
      8       0.3921      2.00000
      9       2.1643      2.00000
     10       2.3818      2.00000
     11       3.0045      2.00000
     12       3.4026      2.00000
     13       3.8157      2.00000
     14       3.8598      2.00000
     15       4.1541      2.00000
     16       4.5787      2.00000
     17       7.8549      0.00000
     18       8.1588      0.00000
     19       8.2745      0.00000
     20       8.4684      0.00000
     21       8.9128      0.00000
     22       8.9527      0.00000
     23       8.9791      0.00000
     24       9.7420      0.00000
     25       9.7640      0.00000

 k-point    46 :       0.4545    0.4545    0.1818
  band No.  band energies     occupation 
      1      -4.4213      2.00000
      2      -4.1080      2.00000
      3      -4.1080      2.00000
      4      -3.8352      2.00000
      5      -0.6990      2.00000
      6      -0.3901      2.00000
      7      -0.3901      2.00000
      8      -0.0251      2.00000
      9       2.4252      2.00000
     10       2.7124      2.00000
     11       2.7124      2.00000
     12       3.0547      2.00000
     13       4.1513      2.00000
     14       4.2426      2.00000
     15       4.2426      2.00000
     16       4.5312      2.00000
     17       7.8812      0.00000
     18       8.0995      0.00000
     19       8.1846      0.00000
     20       8.1846      0.00000
     21       9.1696      0.00000
     22       9.1696      0.00000
     23       9.4166      0.00000
     24       9.5044      0.00000
     25       9.8774      0.00000

 k-point    47 :       0.2727    0.2727    0.2727
  band No.  band energies     occupation 
      1      -5.2721      2.00000
      2      -3.6093      2.00000
      3      -3.6093      2.00000
      4      -3.6093      2.00000
      5      -0.7396      2.00000
      6      -0.7396      2.00000
      7      -0.7396      2.00000
      8       1.3320      2.00000
      9       2.3012      2.00000
     10       2.3012      2.00000
     11       2.3012      2.00000
     12       3.5639      2.00000
     13       3.5639      2.00000
     14       3.5639      2.00000
     15       4.7956      2.00000
     16       4.7956      2.00000
     17       7.2962      0.00000
     18       7.2962      0.00000
     19       7.2962      0.00000
     20       7.4914      0.00000
     21       9.1324      0.00000
     22       9.1324      0.00000
     23      10.5147      0.00000
     24      10.5147      0.00000
     25      10.5147      0.00000

 k-point    48 :       0.3636    0.2727    0.2727
  band No.  band energies     occupation 
      1      -5.0442      2.00000
      2      -4.0276      2.00000
      3      -3.5364      2.00000
      4      -3.5364      2.00000
      5      -0.9580      2.00000
      6      -0.9580      2.00000
      7      -0.4073      2.00000
      8       0.8307      2.00000
      9       2.3712      2.00000
     10       2.3712      2.00000
     11       2.9039      2.00000
     12       3.6469      2.00000
     13       3.6469      2.00000
     14       3.7503      2.00000
     15       4.5211      2.00000
     16       4.6492      2.00000
     17       7.5421      0.00000
     18       7.5848      0.00000
     19       7.6272      0.00000
     20       7.6272      0.00000
     21       8.9545      0.00000
     22       9.3807      0.00000
     23       9.9405      0.00000
     24       9.9405      0.00000
     25      10.0078      0.00000

 k-point    49 :       0.4545    0.2727    0.2727
  band No.  band energies     occupation 
      1      -4.7566      2.00000
      2      -4.4149      2.00000
      3      -3.4891      2.00000
      4      -3.4891      2.00000
      5      -1.0855      2.00000
      6      -1.0855      2.00000
      7      -0.0394      2.00000
      8       0.3724      2.00000
      9       2.4247      2.00000
     10       2.4247      2.00000
     11       3.5494      2.00000
     12       3.6532      2.00000
     13       3.6532      2.00000
     14       3.9796      2.00000
     15       4.1691      2.00000
     16       4.2416      2.00000
     17       7.7805      0.00000
     18       7.8295      0.00000
     19       8.2264      0.00000
     20       8.2264      0.00000
     21       8.9162      0.00000
     22       9.0541      0.00000
     23       9.0541      0.00000
     24       9.3221      0.00000
     25       9.7049      0.00000

 k-point    50 :       0.3636    0.3636    0.2727
  band No.  band energies     occupation 
      1      -4.8269      2.00000
      2      -3.8917      2.00000
      3      -3.8917      2.00000
      4      -3.5575      2.00000
      5      -1.1009      2.00000
      6      -0.7339      2.00000
      7      -0.7339      2.00000
      8       0.3533      2.00000
      9       2.5740      2.00000
     10       2.9607      2.00000
     11       2.9607      2.00000
     12       3.8652      2.00000
     13       3.8652      2.00000
     14       3.8784      2.00000
     15       4.3016      2.00000
     16       4.7233      2.00000
     17       7.4936      0.00000
     18       7.6376      0.00000
     19       7.8267      0.00000
     20       7.8267      0.00000
     21       9.0621      0.00000
     22       9.2203      0.00000
     23       9.3532      0.00000
     24       9.3532      0.00000
     25       9.8834      0.00000

 k-point    51 :       0.4545    0.3636    0.2727
  band No.  band energies     occupation 
      1      -4.5558      2.00000
      2      -4.2393      2.00000
      3      -3.7499      2.00000
      4      -3.6301      2.00000
      5      -1.1118      2.00000
      6      -0.9815      2.00000
      7      -0.4369      2.00000
      8      -0.0724      2.00000
      9       2.7610      2.00000
     10       2.9040      2.00000
     11       3.5177      2.00000
     12       3.9483      2.00000
     13       3.9628      2.00000
     14       3.9727      2.00000
     15       4.1601      2.00000
     16       4.5059      2.00000
     17       7.7161      0.00000
     18       7.9217      0.00000
     19       7.9417      0.00000
     20       8.2425      0.00000
     21       8.7636      0.00000
     22       8.9237      0.00000
     23       8.9405      0.00000
     24       9.2077      0.00000
     25       9.4364      0.00000

 k-point    52 :       0.4545    0.4545    0.2727
  band No.  band energies     occupation 
      1      -4.3104      2.00000
      2      -4.0345      2.00000
      3      -4.0345      2.00000
      4      -3.8215      2.00000
      5      -1.0004      2.00000
      6      -0.7666      2.00000
      7      -0.7666      2.00000
      8      -0.4579      2.00000
      9       3.0589      2.00000
     10       3.3190      2.00000
     11       3.3190      2.00000
     12       3.6675      2.00000
     13       4.2189      2.00000
     14       4.2841      2.00000
     15       4.2841      2.00000
     16       4.5228      2.00000
     17       7.7549      0.00000
     18       7.8736      0.00000
     19       7.9755      0.00000
     20       7.9755      0.00000
     21       8.8995      0.00000
     22       8.8995      0.00000
     23       9.1310      0.00000
     24       9.2156      0.00000
     25       9.2626      0.00000

 k-point    53 :       0.3636    0.3636    0.3636
  band No.  band energies     occupation 
      1      -4.6252      2.00000
      2      -3.8173      2.00000
      3      -3.8173      2.00000
      4      -3.8173      2.00000
      5      -1.0082      2.00000
      6      -1.0082      2.00000
      7      -1.0082      2.00000
      8      -0.1003      2.00000
      9       3.2328      2.00000
     10       3.2328      2.00000
     11       3.2328      2.00000
     12       4.0267      2.00000
     13       4.0267      2.00000
     14       4.0267      2.00000
     15       4.5667      2.00000
     16       4.5667      2.00000
     17       7.2320      0.00000
     18       7.7659      0.00000
     19       7.7659      0.00000
     20       7.7659      0.00000
     21       9.0821      0.00000
     22       9.0821      0.00000
     23       9.2314      0.00000
     24       9.2314      0.00000
     25       9.2314      0.00000

 k-point    54 :       0.4545    0.3636    0.3636
  band No.  band energies     occupation 
      1      -4.3789      2.00000
      2      -4.1021      2.00000
      3      -3.7689      2.00000
      4      -3.7689      2.00000
      5      -1.1615      2.00000
      6      -1.1615      2.00000
      7      -0.7983      2.00000
      8      -0.4898      2.00000
      9       3.3718      2.00000
     10       3.3718      2.00000
     11       3.8756      2.00000
     12       4.1279      2.00000
     13       4.1279      2.00000
     14       4.2007      2.00000
     15       4.3864      2.00000
     16       4.3881      2.00000
     17       7.3692      0.00000
     18       7.6856      0.00000
     19       7.8918      0.00000
     20       7.8918      0.00000
     21       8.8644      0.00000
     22       8.8644      0.00000
     23       8.8847      0.00000
     24       8.9240      0.00000
     25       9.2211      0.00000

 k-point    55 :       0.4545    0.4545    0.3636
  band No.  band energies     occupation 
      1      -4.1729      2.00000
      2      -3.9595      2.00000
      3      -3.9595      2.00000
      4      -3.8400      2.00000
      5      -1.1903      2.00000
      6      -1.0614      2.00000
      7      -1.0614      2.00000
      8      -0.8284      2.00000
      9       3.7014      2.00000
     10       3.8842      2.00000
     11       3.8842      2.00000
     12       4.2026      2.00000
     13       4.2997      2.00000
     14       4.3277      2.00000
     15       4.3277      2.00000
     16       4.4975      2.00000
     17       7.3207      0.00000
     18       7.5888      0.00000
     19       7.5888      0.00000
     20       7.6564      0.00000
     21       8.8705      0.00000
     22       8.8705      0.00000
     23       8.9429      0.00000
     24       9.0310      0.00000
     25       9.0354      0.00000

 k-point    56 :       0.4545    0.4545    0.4545
  band No.  band energies     occupation 
      1      -4.0300      2.00000
      2      -3.9107      2.00000
      3      -3.9107      2.00000
      4      -3.9107      2.00000
      5      -1.2240      2.00000
      6      -1.2240      2.00000
      7      -1.2240      2.00000
      8      -1.0954      2.00000
      9       4.2344      2.00000
     10       4.2344      2.00000
     11       4.2344      2.00000
     12       4.3809      2.00000
     13       4.3809      2.00000
     14       4.3809      2.00000
     15       4.4498      2.00000
     16       4.4498      2.00000
     17       7.0969      0.00000
     18       7.2784      0.00000
     19       7.2784      0.00000
     20       7.2784      0.00000
     21       8.9188      0.00000
     22       8.9188      0.00000
     23       8.9188      0.00000
     24       8.9798      0.00000
     25       8.9799      0.00000


--------------------------------------------------------------------------------------------------------


 soft charge-density along one line, spin component           1
         0         1         2         3         4         5         6         7         8         9
 total charge-density along one line
 
 pseudopotential strength for first ion, spin component:           1
 18.438  25.724   0.000   0.000  -0.000   0.000   0.000  -0.000
 25.724  35.894   0.000   0.000  -0.000   0.000   0.000  -0.000
  0.000   0.000   4.181  -0.000  -0.000   7.791  -0.000  -0.000
  0.000   0.000  -0.000   4.181   0.000  -0.000   7.791   0.000
 -0.000  -0.000  -0.000   0.000   4.181  -0.000   0.000   7.791
  0.000   0.000   7.791  -0.000  -0.000  14.529  -0.000  -0.000
  0.000   0.000  -0.000   7.791   0.000  -0.000  14.529   0.000
 -0.000  -0.000  -0.000   0.000   7.791  -0.000   0.000  14.529
 total augmentation occupancy for first ion, spin component:           1
  5.534  -2.068  -0.000  -0.000  -0.000  -0.000  -0.000  -0.000
 -2.068   0.889  -0.000   0.000   0.000  -0.000  -0.000   0.000
 -0.000   0.000   2.901   0.000   0.000  -0.648  -0.000   0.000
  0.000  -0.000  -0.000   2.901  -0.000  -0.000  -0.648   0.000
 -0.000  -0.000  -0.000  -0.000   2.901   0.000   0.000  -0.648
  0.000  -0.000  -0.648  -0.000   0.000   0.153   0.000  -0.000
 -0.000   0.000   0.000  -0.648   0.000   0.000   0.153  -0.000
 -0.000  -0.000   0.000   0.000  -0.648  -0.000  -0.000   0.153


------------------------ aborting loop because EDIFF is reached ----------------------------------------


    CHARGE:  cpu time    0.0307: real time    0.0308
    FORLOC:  cpu time    0.0005: real time    0.0005
    FORNL :  cpu time    0.0725: real time    0.0749
    STRESS:  cpu time    0.1483: real time    0.1496
    FORCOR:  cpu time    0.0060: real time    0.0061
    FORHAR:  cpu time    0.0017: real time    0.0017
    MIXING:  cpu time    0.0006: real time    0.0006
    OFIELD:  cpu time    0.0000: real time    0.0000

  FORCE on cell =-STRESS in cart. coord.  units (eV):
  Direction    XX          YY          ZZ          XY          YZ          ZX
  --------------------------------------------------------------------------------------
  Alpha Z    13.16963    13.16963    13.16963
  Ewald    -302.57004  -302.57004  -302.57004     0.00000    -0.00000    -0.00000
  Hartree    20.23244    20.23244    20.23244    -0.00000    -0.00000    -0.00000
  E(xc)    -100.97447  -100.97447  -100.97447     0.00000    -0.00000    -0.00000
  Local    -118.09543  -118.09543  -118.09543     0.00000    -0.00000    -0.00000
  n-local   309.73461   313.21026   306.59780    -2.94389    -2.29536    -1.50688
  augment   -46.60317   -46.60317   -46.60317     0.00000    -0.00000    -0.00000
  Kinetic   217.74189   229.53976   227.61475    -3.73571    -5.28101    -2.56032
  Fock        0.00000     0.00000     0.00000     0.00000     0.00000     0.00000
  -------------------------------------------------------------------------------------
  Total      -0.02802    -0.02802    -0.02802     0.00000    -0.00000    -0.00000
  in kB      -0.27437    -0.27437    -0.27437     0.00000    -0.00000    -0.00000
  external pressure =       -0.27 kB  Pullay stress =        0.00 kB


 VOLUME and BASIS-vectors are now :
 -----------------------------------------------------------------------------
  energy-cutoff  :      400.00
  volume of cell :      163.59
      direct lattice vectors                 reciprocal lattice vectors
     5.469156174  0.000000000 -0.000000000     0.182843563  0.000000000  0.000000000
    -0.000000000  5.469156174  0.000000000    -0.000000000  0.182843563 -0.000000000
    -0.000000000  0.000000000  5.469156174     0.000000000 -0.000000000  0.182843563

  length of vectors
     5.469156174  5.469156174  5.469156174     0.182843563  0.182843563  0.182843563


 FORCES acting on ions
    electron-ion (+dipol)            ewald-force                    non-local-force                 convergence-correction
 -----------------------------------------------------------------------------------------------
   -.643E-13 0.141E-14 -.118E-13   -.355E-14 -.355E-14 0.000E+00   0.191E-16 -.278E-16 -.416E-16   0.120E-14 -.235E-14 0.335E-14
   -.585E-13 -.137E-13 -.275E-13   -.355E-14 -.355E-14 0.000E+00   0.321E-16 -.651E-17 0.173E-16   0.128E-14 -.292E-14 0.473E-14
   -.643E-13 0.107E-14 0.330E-12   -.355E-14 -.355E-14 0.000E+00   -.269E-16 -.143E-16 0.312E-16   -.622E-14 -.316E-14 0.532E-14
   -.702E-13 0.129E-12 0.163E-12   -.355E-14 -.355E-14 0.000E+00   0.174E-16 0.338E-16 0.173E-16   -.590E-14 -.270E-14 0.387E-14
   0.455E-13 0.122E-12 -.826E-14   0.631E-14 0.468E-14 0.151E-15   -.295E-16 -.412E-16 -.867E-18   0.901E-15 0.110E-14 0.948E-15
   0.390E-13 0.487E-13 -.102E-12   0.386E-14 0.472E-14 0.138E-15   -.156E-16 0.152E-16 0.477E-16   0.959E-14 -.361E-15 0.107E-14
   0.338E-13 0.250E-12 -.215E-12   0.398E-14 0.249E-14 -.239E-15   -.408E-16 0.824E-17 -.173E-16   0.101E-13 0.612E-15 0.264E-14
   0.455E-13 0.417E-13 -.241E-13   0.734E-14 0.252E-14 -.252E-15   0.286E-16 0.911E-17 -.243E-16   0.151E-14 0.360E-15 0.215E-14
 -----------------------------------------------------------------------------------------------
   -.935E-13 0.580E-12 0.104E-12   0.729E-14 0.203E-15 -.202E-15   -.156E-16 -.234E-16 0.295E-16   0.124E-13 -.942E-14 0.241E-13
 
 
 POSITION                                       TOTAL-FORCE (eV/Angst)
 -----------------------------------------------------------------------------------
     -0.00000      0.00000     -0.00000         0.000000     -0.000000     -0.000000
     -0.00000      2.73458      2.73458         0.000000     -0.000000     -0.000000
      2.73458      0.00000      2.73458        -0.000000     -0.000000      0.000000
      2.73458      2.73458     -0.00000         0.000000     -0.000000     -0.000000
      1.36729      1.36729      1.36729        -0.000000      0.000000     -0.000000
      4.10187      4.10187      1.36729        -0.000000      0.000000     -0.000000
      4.10187      1.36729      4.10187        -0.000000      0.000000      0.000000
      1.36729      4.10187      4.10187         0.000000      0.000000     -0.000000
 -----------------------------------------------------------------------------------
    total drift:                               -0.000000      0.000000      0.000000


--------------------------------------------------------------------------------------------------------



  FREE ENERGIE OF THE ION-ELECTRON SYSTEM (eV)
  ---------------------------------------------------
  free  energy   TOTEN  =       -43.39841665 eV

  energy  without entropy=      -43.39841661  energy(sigma->0) =      -43.39841663
 
 d Force = 0.0000000E+00[ 0.000E+00, 0.000E+00]  d Energy = 0.1047689E+00-0.105E+00
 d Force = 0.0000000E+00[ 0.000E+00, 0.000E+00]  d Ewald  = 0.1456290E+02-0.146E+02


--------------------------------------------------------------------------------------------------------


    POTLOK:  cpu time    0.0072: real time    0.0072


--------------------------------------------------------------------------------------------------------




--------------------------------------------------------------------------------------------------------


  
 reached required accuracy - stopping structural energy minimisation
 writing wavefunctions
     LOOP+:  cpu time    4.7767: real time    5.0360
    4ORBIT:  cpu time    0.0000: real time    0.0000

 total amount of memory used by VASP on root node    34274. kBytes
========================================================================

   base      :      30000. kBytes
   nonl-proj :       1373. kBytes
   fftplans  :        502. kBytes
   grid      :        694. kBytes
   one-center:          3. kBytes
   wavefun   :       1702. kBytes
 
  
  
 General timing and accounting informations for this job:
 ========================================================
  
                  Total CPU time used (sec):       16.859
                            User time (sec):       16.078
                          System time (sec):        0.781
                         Elapsed time (sec):       19.370
  
                   Maximum memory used (kb):      138960.
                   Average memory used (kb):           0.
  
                          Minor page faults:        28885
                          Major page faults:           51
                 Voluntary context switches:         9531
