<?xml version="1.0" encoding="ISO-8859-1"?>
<modeling>
 <generator>
  <i name="program" type="string">vasp </i>
  <i name="version" type="string">5.4.1  </i>
  <i name="subversion" type="string">05Feb16 (build Feb 24 2020 14:33:01) complex                          parallel </i>
  <i name="platform" type="string">IFC91_ompi </i>
  <i name="date" type="string">2020 02 27 </i>
  <i name="time" type="string">23:28:03 </i>
 </generator>
 <incar>
  <i type="string" name="SYSTEM"> diamond Si</i>
  <i type="int" name="ISTART">     0</i>
  <i type="string" name="PREC">accurate</i>
  <i type="int" name="NSIM">     4</i>
  <i type="int" name="ICHARG">     2</i>
  <i type="int" name="NELM">    60</i>
  <i type="int" name="NELMDL">     3</i>
  <i type="int" name="NELMIN">     0</i>
  <i type="int" name="IBRION">     2</i>
  <i name="EDIFF">      0.00010000</i>
  <i name="EDIFFG">     -0.01000000</i>
  <i type="int" name="NSW">     9</i>
  <i type="int" name="ISIF">     3</i>
  <i name="ENCUT">    400.00000000</i>
  <i name="POTIM">      1.00000000</i>
  <i type="logical" name="LPLANE"> F  </i>
  <i type="int" name="ISMEAR">     0</i>
  <i name="SIGMA">      0.10000000</i>
  <v type="int" name="KPOINT_BSE">    -1     0     0     0</v>
  <i type="int" name="NELM">    60</i>
 </incar>
 <kpoints>
  <generation param="Monkhorst-Pack">
   <v type="int" name="divisions">      11       11       11 </v>
   <v name="usershift">      0.00000000       0.00000000       0.00000000 </v>
   <v name="genvec1">      0.09090909       0.00000000       0.00000000 </v>
   <v name="genvec2">      0.00000000       0.09090909       0.00000000 </v>
   <v name="genvec3">      0.00000000       0.00000000       0.09090909 </v>
   <v name="shift">      0.00000000       0.00000000       0.00000000 </v>
  </generation>
  <varray name="kpointlist" >
   <v>       0.00000000       0.00000000       0.00000000 </v>
   <v>       0.09090909       0.00000000       0.00000000 </v>
   <v>       0.18181818       0.00000000       0.00000000 </v>
   <v>       0.27272727       0.00000000       0.00000000 </v>
   <v>       0.36363636       0.00000000       0.00000000 </v>
   <v>       0.45454545       0.00000000       0.00000000 </v>
   <v>       0.09090909       0.09090909       0.00000000 </v>
   <v>       0.18181818       0.09090909       0.00000000 </v>
   <v>       0.27272727       0.09090909       0.00000000 </v>
   <v>       0.36363636       0.09090909       0.00000000 </v>
   <v>       0.45454545       0.09090909       0.00000000 </v>
   <v>       0.18181818       0.18181818       0.00000000 </v>
   <v>       0.27272727       0.18181818       0.00000000 </v>
   <v>       0.36363636       0.18181818       0.00000000 </v>
   <v>       0.45454545       0.18181818       0.00000000 </v>
   <v>       0.27272727       0.27272727       0.00000000 </v>
   <v>       0.36363636       0.27272727       0.00000000 </v>
   <v>       0.45454545       0.27272727       0.00000000 </v>
   <v>       0.36363636       0.36363636       0.00000000 </v>
   <v>       0.45454545       0.36363636       0.00000000 </v>
   <v>       0.45454545       0.45454545       0.00000000 </v>
   <v>       0.09090909       0.09090909       0.09090909 </v>
   <v>       0.18181818       0.09090909       0.09090909 </v>
   <v>       0.27272727       0.09090909       0.09090909 </v>
   <v>       0.36363636       0.09090909       0.09090909 </v>
   <v>       0.45454545       0.09090909       0.09090909 </v>
   <v>       0.18181818       0.18181818       0.09090909 </v>
   <v>       0.27272727       0.18181818       0.09090909 </v>
   <v>       0.36363636       0.18181818       0.09090909 </v>
   <v>       0.45454545       0.18181818       0.09090909 </v>
   <v>       0.27272727       0.27272727       0.09090909 </v>
   <v>       0.36363636       0.27272727       0.09090909 </v>
   <v>       0.45454545       0.27272727       0.09090909 </v>
   <v>       0.36363636       0.36363636       0.09090909 </v>
   <v>       0.45454545       0.36363636       0.09090909 </v>
   <v>       0.45454545       0.45454545       0.09090909 </v>
   <v>       0.18181818       0.18181818       0.18181818 </v>
   <v>       0.27272727       0.18181818       0.18181818 </v>
   <v>       0.36363636       0.18181818       0.18181818 </v>
   <v>       0.45454545       0.18181818       0.18181818 </v>
   <v>       0.27272727       0.27272727       0.18181818 </v>
   <v>       0.36363636       0.27272727       0.18181818 </v>
   <v>       0.45454545       0.27272727       0.18181818 </v>
   <v>       0.36363636       0.36363636       0.18181818 </v>
   <v>       0.45454545       0.36363636       0.18181818 </v>
   <v>       0.45454545       0.45454545       0.18181818 </v>
   <v>       0.27272727       0.27272727       0.27272727 </v>
   <v>       0.36363636       0.27272727       0.27272727 </v>
   <v>       0.45454545       0.27272727       0.27272727 </v>
   <v>       0.36363636       0.36363636       0.27272727 </v>
   <v>       0.45454545       0.36363636       0.27272727 </v>
   <v>       0.45454545       0.45454545       0.27272727 </v>
   <v>       0.36363636       0.36363636       0.36363636 </v>
   <v>       0.45454545       0.36363636       0.36363636 </v>
   <v>       0.45454545       0.45454545       0.36363636 </v>
   <v>       0.45454545       0.45454545       0.45454545 </v>
  </varray>
  <varray name="weights" >
   <v>       0.00075131 </v>
   <v>       0.00450789 </v>
   <v>       0.00450789 </v>
   <v>       0.00450789 </v>
   <v>       0.00450789 </v>
   <v>       0.00450789 </v>
   <v>       0.00901578 </v>
   <v>       0.01803156 </v>
   <v>       0.01803156 </v>
   <v>       0.01803156 </v>
   <v>       0.01803156 </v>
   <v>       0.00901578 </v>
   <v>       0.01803156 </v>
   <v>       0.01803156 </v>
   <v>       0.01803156 </v>
   <v>       0.00901578 </v>
   <v>       0.01803156 </v>
   <v>       0.01803156 </v>
   <v>       0.00901578 </v>
   <v>       0.01803156 </v>
   <v>       0.00901578 </v>
   <v>       0.00601052 </v>
   <v>       0.01803156 </v>
   <v>       0.01803156 </v>
   <v>       0.01803156 </v>
   <v>       0.01803156 </v>
   <v>       0.01803156 </v>
   <v>       0.03606311 </v>
   <v>       0.03606311 </v>
   <v>       0.03606311 </v>
   <v>       0.01803156 </v>
   <v>       0.03606311 </v>
   <v>       0.03606311 </v>
   <v>       0.01803156 </v>
   <v>       0.03606311 </v>
   <v>       0.01803156 </v>
   <v>       0.00601052 </v>
   <v>       0.01803156 </v>
   <v>       0.01803156 </v>
   <v>       0.01803156 </v>
   <v>       0.01803156 </v>
   <v>       0.03606311 </v>
   <v>       0.03606311 </v>
   <v>       0.01803156 </v>
   <v>       0.03606311 </v>
   <v>       0.01803156 </v>
   <v>       0.00601052 </v>
   <v>       0.01803156 </v>
   <v>       0.01803156 </v>
   <v>       0.01803156 </v>
   <v>       0.03606311 </v>
   <v>       0.01803156 </v>
   <v>       0.00601052 </v>
   <v>       0.01803156 </v>
   <v>       0.01803156 </v>
   <v>       0.00601052 </v>
  </varray>
 </kpoints>
 <parameters>
  <separator name="general" >
   <i type="string" name="SYSTEM">diamond Si</i>
   <i type="logical" name="LCOMPAT"> F  </i>
  </separator>
  <separator name="electronic" >
   <i type="string" name="PREC">accura</i>
   <i name="ENMAX">    400.00000000</i>
   <i name="ENAUG">    322.06900000</i>
   <i name="EDIFF">      0.00010000</i>
   <i type="int" name="IALGO">    38</i>
   <i type="int" name="IWAVPR">    11</i>
   <i type="int" name="NBANDS">    25</i>
   <i name="NELECT">     32.00000000</i>
   <i type="int" name="TURBO">     0</i>
   <i type="int" name="IRESTART">     0</i>
   <i type="int" name="NREBOOT">     0</i>
   <i type="int" name="NMIN">     0</i>
   <i name="EREF">      0.00000000</i>
   <separator name="electronic smearing" >
    <i type="int" name="ISMEAR">     0</i>
    <i name="SIGMA">      0.10000000</i>
    <i name="KSPACING">      0.50000000</i>
    <i type="logical" name="KGAMMA"> T  </i>
   </separator>
   <separator name="electronic projectors" >
    <i type="logical" name="LREAL"> F  </i>
    <v name="ROPT">      0.00000000</v>
    <i type="int" name="LMAXPAW">  -100</i>
    <i type="int" name="LMAXMIX">     2</i>
    <i type="logical" name="NLSPLINE"> F  </i>
   </separator>
   <separator name="electronic startup" >
    <i type="int" name="ISTART">     0</i>
    <i type="int" name="ICHARG">     2</i>
    <i type="int" name="INIWAV">     1</i>
   </separator>
   <separator name="electronic spin" >
    <i type="int" name="ISPIN">     1</i>
    <i type="logical" name="LNONCOLLINEAR"> F  </i>
    <v name="MAGMOM">      1.00000000      1.00000000      1.00000000      1.00000000      1.00000000      1.00000000      1.00000000      1.00000000</v>
    <i name="NUPDOWN">     -1.00000000</i>
    <i type="logical" name="LSORBIT"> F  </i>
    <v name="SAXIS">      0.00000000      0.00000000      1.00000000</v>
    <i type="logical" name="LSPIRAL"> F  </i>
    <v name="QSPIRAL">      0.00000000      0.00000000      0.00000000</v>
    <i type="logical" name="LZEROZ"> F  </i>
   </separator>
   <separator name="electronic exchange-correlation" >
    <i type="logical" name="LASPH"> F  </i>
    <i type="logical" name="LMETAGGA"> F  </i>
   </separator>
   <separator name="electronic convergence" >
    <i type="int" name="NELM">    60</i>
    <i type="int" name="NELMDL">     3</i>
    <i type="int" name="NELMIN">     0</i>
    <i name="ENINI">    400.00000000</i>
    <separator name="electronic convergence detail" >
     <i type="logical" name="LDIAG"> T  </i>
     <i type="logical" name="LSUBROT"> F  </i>
     <i name="WEIMIN">      0.00100000</i>
     <i name="EBREAK">      0.00000100</i>
     <i name="DEPER">      0.30000000</i>
     <i type="int" name="NRMM">     4</i>
     <i name="TIME">      0.40000000</i>
    </separator>
   </separator>
   <separator name="electronic mixer" >
    <i name="AMIX">      0.40000000</i>
    <i name="BMIX">      1.00000000</i>
    <i name="AMIN">      0.10000000</i>
    <i name="AMIX_MAG">      1.60000000</i>
    <i name="BMIX_MAG">      1.00000000</i>
    <separator name="electronic mixer details" >
     <i type="int" name="IMIX">     4</i>
     <i type="logical" name="MIXFIRST"> F  </i>
     <i type="int" name="MAXMIX">   -45</i>
     <i name="WC">    100.00000000</i>
     <i type="int" name="INIMIX">     1</i>
     <i type="int" name="MIXPRE">     1</i>
     <i type="int" name="MREMOVE">     5</i>
    </separator>
   </separator>
   <separator name="electronic dipolcorrection" >
    <i type="logical" name="LDIPOL"> F  </i>
    <i type="logical" name="LMONO"> F  </i>
    <i type="int" name="IDIPOL">     0</i>
    <i name="EPSILON">      1.00000000</i>
    <v name="DIPOL">   -100.00000000   -100.00000000   -100.00000000</v>
    <i name="EFIELD">      0.00000000</i>
   </separator>
  </separator>
  <separator name="grids" >
   <i type="int" name="NGX">    36</i>
   <i type="int" name="NGY">    36</i>
   <i type="int" name="NGZ">    36</i>
   <i type="int" name="NGXF">    72</i>
   <i type="int" name="NGYF">    72</i>
   <i type="int" name="NGZF">    72</i>
   <i type="logical" name="ADDGRID"> F  </i>
  </separator>
  <separator name="ionic" >
   <i type="int" name="NSW">     9</i>
   <i type="int" name="IBRION">     2</i>
   <i type="int" name="ISIF">     3</i>
   <i name="PSTRESS">      0.00000000</i>
   <i name="EDIFFG">     -0.01000000</i>
   <i type="int" name="NFREE">     1</i>
   <i name="POTIM">      1.00000000</i>
   <i name="SMASS">     -3.00000000</i>
   <i name="SCALEE">      1.00000000</i>
  </separator>
  <separator name="ionic md" >
   <i name="TEBEG">      0.00010000</i>
   <i name="TEEND">      0.00010000</i>
   <i type="int" name="NBLOCK">     1</i>
   <i type="int" name="KBLOCK">     9</i>
   <i type="int" name="NPACO">   256</i>
   <i name="APACO">     16.00000000</i>
  </separator>
  <separator name="symmetry" >
   <i type="int" name="ISYM">     2</i>
   <i name="SYMPREC">      0.00001000</i>
  </separator>
  <separator name="dos" >
   <i type="logical" name="LORBIT"> F  </i>
   <v name="RWIGS">     -1.00000000</v>
   <i type="int" name="NEDOS">   301</i>
   <i name="EMIN">     10.00000000</i>
   <i name="EMAX">    -10.00000000</i>
   <i name="EFERMI">      0.00000000</i>
  </separator>
  <separator name="writing" >
   <i type="int" name="NWRITE">     2</i>
   <i type="logical" name="LWAVE"> T  </i>
   <i type="logical" name="LCHARG"> T  </i>
   <i type="logical" name="LPARD"> F  </i>
   <i type="logical" name="LVTOT"> F  </i>
   <i type="logical" name="LVHAR"> F  </i>
   <i type="logical" name="LELF"> F  </i>
   <i type="logical" name="LOPTICS"> F  </i>
   <v name="STM">      0.00000000      0.00000000      0.00000000      0.00000000      0.00000000      0.00000000      0.00000000</v>
  </separator>
  <separator name="performance" >
   <i type="int" name="NPAR">     5</i>
   <i type="int" name="NSIM">     4</i>
   <i type="int" name="NBLK">    -1</i>
   <i type="logical" name="LPLANE"> F  </i>
   <i type="logical" name="LSCALAPACK"> T  </i>
   <i type="logical" name="LSCAAWARE"> F  </i>
   <i type="logical" name="LSCALU"> F  </i>
   <i type="logical" name="LASYNC"> F  </i>
   <i type="logical" name="LORBITALREAL"> F  </i>
  </separator>
  <separator name="miscellaneous" >
   <i type="int" name="IDIOT">     3</i>
   <i type="logical" name="LMUSIC"> F  </i>
   <v name="POMASS">     28.08500000</v>
   <v name="DARWINR">      0.00000000</v>
   <v name="DARWINV">      1.00000000</v>
   <i type="logical" name="LCORR"> T  </i>
  </separator>
  <i type="logical" name="GGA_COMPAT"> T  </i>
  <i type="logical" name="LBERRY"> F  </i>
  <i type="int" name="ICORELEVEL">     0</i>
  <i type="logical" name="LDAU"> F  </i>
  <i type="int" name="I_CONSTRAINED_M">     0</i>
  <separator name="electronic exchange-correlation" >
   <i type="string" name="GGA">--</i>
   <i type="int" name="VOSKOWN">     0</i>
   <i type="logical" name="LHFCALC"> F  </i>
   <i type="string" name="PRECFOCK"></i>
   <i type="logical" name="LSYMGRAD"> F  </i>
   <i type="logical" name="LHFONE"> F  </i>
   <i type="logical" name="LRHFCALC"> F  </i>
   <i type="logical" name="LTHOMAS"> F  </i>
   <i type="logical" name="LMODELHF"> F  </i>
   <i name="ENCUT4O">     -1.00000000</i>
   <i type="int" name="EXXOEP">     0</i>
   <i type="int" name="FOURORBIT">     0</i>
   <i name="AEXX">      0.00000000</i>
   <i name="HFALPHA">      0.00000000</i>
   <i name="MCALPHA">      0.00000000</i>
   <i name="ALDAX">      1.00000000</i>
   <i name="AGGAX">      1.00000000</i>
   <i name="ALDAC">      1.00000000</i>
   <i name="AGGAC">      1.00000000</i>
   <i type="int" name="NKREDX">     1</i>
   <i type="int" name="NKREDY">     1</i>
   <i type="int" name="NKREDZ">     1</i>
   <i type="logical" name="SHIFTRED"> F  </i>
   <i type="logical" name="ODDONLY"> F  </i>
   <i type="logical" name="EVENONLY"> F  </i>
   <i type="int" name="LMAXFOCK">     0</i>
   <i type="int" name="NMAXFOCKAE">     0</i>
   <i type="logical" name="LFOCKAEDFT"> F  </i>
   <i name="HFSCREEN">      0.00000000</i>
   <i name="HFSCREENC">      0.00000000</i>
   <i type="int" name="NBANDSGWLOW">     0</i>
  </separator>
  <separator name="vdW DFT" >
   <i type="logical" name="LUSE_VDW"> F  </i>
   <i name="Zab_VDW">     -0.84910000</i>
   <i name="PARAM1">      0.12340000</i>
   <i name="PARAM2">      1.00000000</i>
   <i name="PARAM3">      0.00000000</i>
  </separator>
  <separator name="model GW" >
   <i type="int" name="MODEL_GW">     0</i>
   <i name="MODEL_EPS0">     12.01436085</i>
   <i name="MODEL_ALPHA">      1.00000000</i>
  </separator>
  <separator name="linear response parameters" >
   <i type="logical" name="LEPSILON"> F  </i>
   <i type="logical" name="LRPA"> F  </i>
   <i type="logical" name="LNABLA"> F  </i>
   <i type="logical" name="LVEL"> F  </i>
   <i type="int" name="KINTER">     0</i>
   <i name="CSHIFT">      0.10000000</i>
   <i name="OMEGAMAX">     -1.00000000</i>
   <i name="DEG_THRESHOLD">      0.00200000</i>
  </separator>
  <separator name="orbital magnetization" >
   <i type="logical" name="NUCIND"> F  </i>
   <v name="MAGPOS">      0.00000000      0.00000000      0.00000000</v>
   <i type="logical" name="LNICSALL"> T  </i>
   <i type="logical" name="ORBITALMAG"> F  </i>
   <i type="logical" name="LMAGBLOCH"> F  </i>
   <i type="logical" name="LCHIMAG"> F  </i>
   <i type="logical" name="LGAUGE"> T  </i>
   <i type="int" name="MAGATOM">     0</i>
   <v name="MAGDIPOL">      0.00000000      0.00000000      0.00000000</v>
   <v name="AVECCONST">      0.00000000      0.00000000      0.00000000</v>
  </separator>
  <separator name="response functions" >
   <i type="logical" name="LADDER"> F  </i>
   <i type="logical" name="LFXC"> F  </i>
   <i type="logical" name="LHARTREE"> T  </i>
   <i type="int" name="IBSE">     0</i>
   <v type="int" name="KPOINT">    -1     0     0     0</v>
   <i type="logical" name="LTCTE"> F  </i>
   <i type="logical" name="LTETE"> F  </i>
   <i type="logical" name="LTRIPLET"> F  </i>
   <i type="logical" name="LFXCEPS"> F  </i>
   <i type="logical" name="LFXHEG"> F  </i>
   <i type="int" name="NATURALO">     0</i>
   <i type="logical" name="L2ORDER"> F  </i>
   <i type="logical" name="LUSEW"> F  </i>
   <i name="ENCUTGW">     -2.00000000</i>
   <i name="ENCUTGWSOFT">     -2.00000000</i>
   <i name="ENCUTLF">     -1.00000000</i>
   <i type="int" name="LMAXMP2">    -1</i>
   <i name="SCISSOR">      0.00000000</i>
   <i type="int" name="NOMEGA">     0</i>
   <i type="int" name="NOMEGAR">     0</i>
   <i type="int" name="NBANDSGW">    -1</i>
   <i type="int" name="NBANDSO">    -1</i>
   <i type="int" name="NBANDSV">    -1</i>
   <i type="int" name="NELM">    60</i>
   <i type="int" name="NELMHF">     1</i>
   <i type="int" name="DIM">     3</i>
   <i type="int" name="ANTIRES">     0</i>
   <i name="OMEGAMAX">    -30.00000000</i>
   <i name="OMEGAMIN">    -30.00000000</i>
   <i name="OMEGATL">   -200.00000000</i>
   <i type="int" name="OMEGAGRID">     0</i>
   <i name="CSHIFT">     -0.10000000</i>
   <i type="logical" name="SELFENERGY"> F  </i>
   <i type="logical" name="LSPECTRAL"> F  </i>
   <i type="logical" name="LSPECTRALGW"> F  </i>
   <i type="logical" name="LSINGLES"> F  </i>
   <i type="logical" name="LFERMIGW"> F  </i>
   <i type="logical" name="ODDONLYGW"> F  </i>
   <i type="logical" name="EVENONLYGW"> F  </i>
   <i type="int" name="NKREDLFX">     1</i>
   <i type="int" name="NKREDLFY">     1</i>
   <i type="int" name="NKREDLFZ">     1</i>
   <i type="int" name="MAXMEM">  1800</i>
   <i type="int" name="TELESCOPE">     0</i>
   <i type="int" name="TAUPAR">     1</i>
   <i type="int" name="OMEGAPAR">    -1</i>
   <i name="LAMBDA">      1.00000000</i>
  </separator>
  <separator name="External order field" >
   <i name="OFIELD_KAPPA">      0.00000000</i>
   <v name="OFIELD_K">      0.00000000      0.00000000      0.00000000</v>
   <i name="OFIELD_Q6_NEAR">      0.00000000</i>
   <i name="OFIELD_Q6_FAR">      0.00000000</i>
   <i name="OFIELD_A">      0.00000000</i>
  </separator>
 </parameters>
 <atominfo>
  <atoms>       8 </atoms>
  <types>       1 </types>
  <array name="atoms" >
   <dimension dim="1">ion</dimension>
   <field type="string">element</field>
   <field type="int">atomtype</field>
   <set>
    <rc><c>Si</c><c>   1</c></rc>
    <rc><c>Si</c><c>   1</c></rc>
    <rc><c>Si</c><c>   1</c></rc>
    <rc><c>Si</c><c>   1</c></rc>
    <rc><c>Si</c><c>   1</c></rc>
    <rc><c>Si</c><c>   1</c></rc>
    <rc><c>Si</c><c>   1</c></rc>
    <rc><c>Si</c><c>   1</c></rc>
   </set>
  </array>
  <array name="atomtypes" >
   <dimension dim="1">type</dimension>
   <field type="int">atomspertype</field>
   <field type="string">element</field>
   <field>mass</field>
   <field>valence</field>
   <field type="string">pseudopotential</field>
   <set>
    <rc><c>   8</c><c>Si</c><c>     28.08500000</c><c>      4.00000000</c><c>  PAW_PBE Si 05Jan2001                  </c></rc>
   </set>
  </array>
 </atominfo>
 <structure name="initialpos" >
  <crystal>
   <varray name="basis" >
    <v>       5.43100000       0.00000000       0.00000000 </v>
    <v>       0.00000000       5.43100000       0.00000000 </v>
    <v>       0.00000000       0.00000000       5.43100000 </v>
   </varray>
   <i name="volume">    160.19147799 </i>
   <varray name="rec_basis" >
    <v>       0.18412815       0.00000000       0.00000000 </v>
    <v>       0.00000000       0.18412815       0.00000000 </v>
    <v>       0.00000000       0.00000000       0.18412815 </v>
   </varray>
  </crystal>
  <varray name="positions" >
   <v>       0.00000000       0.00000000       0.00000000 </v>
   <v>       0.00000000       0.50000000       0.50000000 </v>
   <v>       0.50000000       0.00000000       0.50000000 </v>
   <v>       0.50000000       0.50000000       0.00000000 </v>
   <v>       0.25000000       0.25000000       0.25000000 </v>
   <v>       0.75000000       0.75000000       0.25000000 </v>
   <v>       0.75000000       0.25000000       0.75000000 </v>
   <v>       0.25000000       0.75000000       0.75000000 </v>
  </varray>
 </structure>
 <calculation>
  <scstep>
   <time name="dav">    0.81    0.94</time>
   <time name="total">    0.82    1.08</time>
   <energy>
    <i name="alphaZ">     13.44915721 </i>
    <i name="ewald">   -914.08579262 </i>
    <i name="hartreedc">    -44.03749844 </i>
    <i name="XCdc">    -74.41615916 </i>
    <i name="pawpsdc">    704.99039692 </i>
    <i name="pawaedc">   -564.24414232 </i>
    <i name="eentropy">     -0.01175619 </i>
    <i name="bandstr">    107.71987484 </i>
    <i name="atom">    824.52596983 </i>
    <i name="e_fr_energy">     53.89005007 </i>
    <i name="e_wo_entrp">     53.90180626 </i>
    <i name="e_0_energy">     53.89592817 </i>
   </energy>
  </scstep>
  <scstep>
   <time name="dav">    0.61    0.64</time>
   <time name="total">    0.61    0.65</time>
   <energy>
    <i name="e_fr_energy">    -40.09452997 </i>
    <i name="e_wo_entrp">    -40.09451662 </i>
    <i name="e_0_energy">    -40.09452330 </i>
   </energy>
  </scstep>
  <scstep>
   <time name="dav">    0.61    0.61</time>
   <time name="total">    0.65    0.65</time>
   <energy>
    <i name="e_fr_energy">    -44.04897528 </i>
    <i name="e_wo_entrp">    -44.04897528 </i>
    <i name="e_0_energy">    -44.04897528 </i>
   </energy>
  </scstep>
  <scstep>
   <time name="dav">    0.61    0.61</time>
   <time name="total">    0.65    0.66</time>
   <energy>
    <i name="e_fr_energy">    -43.60329882 </i>
    <i name="e_wo_entrp">    -43.60329882 </i>
    <i name="e_0_energy">    -43.60329882 </i>
   </energy>
  </scstep>
  <scstep>
   <time name="dav">    0.58    0.58</time>
   <time name="total">    0.62    0.63</time>
   <energy>
    <i name="e_fr_energy">    -43.37103935 </i>
    <i name="e_wo_entrp">    -43.37103912 </i>
    <i name="e_0_energy">    -43.37103924 </i>
   </energy>
  </scstep>
  <scstep>
   <time name="dav">    0.66    0.67</time>
   <time name="total">    0.71    0.71</time>
   <energy>
    <i name="e_fr_energy">    -43.37658588 </i>
    <i name="e_wo_entrp">    -43.37658567 </i>
    <i name="e_0_energy">    -43.37658577 </i>
   </energy>
  </scstep>
  <scstep>
   <time name="dav">    0.60    0.60</time>
   <time name="total">    0.65    0.66</time>
   <energy>
    <i name="e_fr_energy">    -43.37878153 </i>
    <i name="e_wo_entrp">    -43.37878141 </i>
    <i name="e_0_energy">    -43.37878147 </i>
   </energy>
  </scstep>
  <scstep>
   <time name="dav">    0.59    0.61</time>
   <time name="total">    0.59    0.69</time>
   <energy>
    <i name="alphaZ">     13.44915721 </i>
    <i name="ewald">   -914.08579262 </i>
    <i name="hartreedc">    -59.63808748 </i>
    <i name="XCdc">    -71.86097991 </i>
    <i name="pawpsdc">   3502.17643819 </i>
    <i name="pawaedc">  -3362.32391191 </i>
    <i name="eentropy">     -0.00000013 </i>
    <i name="bandstr">     24.37838034 </i>
    <i name="atom">    824.52596983 </i>
    <i name="e_fr_energy">    -43.37882649 </i>
    <i name="e_wo_entrp">    -43.37882636 </i>
    <i name="e_0_energy">    -43.37882642 </i>
   </energy>
  </scstep>
  <structure>
   <crystal>
    <varray name="basis" >
     <v>       5.43100000       0.00000000       0.00000000 </v>
     <v>       0.00000000       5.43100000       0.00000000 </v>
     <v>       0.00000000       0.00000000       5.43100000 </v>
    </varray>
    <i name="volume">    160.19147799 </i>
    <varray name="rec_basis" >
     <v>       0.18412815       0.00000000       0.00000000 </v>
     <v>       0.00000000       0.18412815       0.00000000 </v>
     <v>       0.00000000       0.00000000       0.18412815 </v>
    </varray>
   </crystal>
   <varray name="positions" >
    <v>       0.00000000       0.00000000       0.00000000 </v>
    <v>       0.00000000       0.50000000       0.50000000 </v>
    <v>       0.50000000       0.00000000       0.50000000 </v>
    <v>       0.50000000       0.50000000       0.00000000 </v>
    <v>       0.25000000       0.25000000       0.25000000 </v>
    <v>       0.75000000       0.75000000       0.25000000 </v>
    <v>       0.75000000       0.25000000       0.75000000 </v>
    <v>       0.25000000       0.75000000       0.75000000 </v>
   </varray>
  </structure>
  <varray name="forces" >
   <v>      -0.00000000       0.00000000      -0.00000000 </v>
   <v>      -0.00000000       0.00000000       0.00000000 </v>
   <v>      -0.00000000       0.00000000       0.00000000 </v>
   <v>      -0.00000000      -0.00000000       0.00000000 </v>
   <v>       0.00000000       0.00000000      -0.00000000 </v>
   <v>       0.00000000      -0.00000000       0.00000000 </v>
   <v>       0.00000000      -0.00000000      -0.00000000 </v>
   <v>      -0.00000000      -0.00000000      -0.00000000 </v>
  </varray>
  <varray name="stress" >
   <v>      19.44271584       0.00000000      -0.00000000 </v>
   <v>      -0.00000000      19.44271584       0.00000000 </v>
   <v>      -0.00000000       0.00000000      19.44271584 </v>
  </varray>
  <energy>
   <i name="e_fr_energy">    -43.37882649 </i>
   <i name="e_wo_entrp">    -43.37882642 </i>
   <i name="e_0_energy">     -0.00000013 </i>
  </energy>
  <time name="totalsc">    5.89    6.37</time>
 </calculation>
 <calculation>
  <scstep>
   <time name="dav">    0.56    0.57</time>
   <time name="total">    0.57    0.58</time>
   <energy>
    <i name="alphaZ">     12.54587865 </i>
    <i name="ewald">   -893.14566845 </i>
    <i name="hartreedc">    -58.32494694 </i>
    <i name="XCdc">    -73.22026801 </i>
    <i name="pawpsdc">   3466.99544850 </i>
    <i name="pawaedc">  -3327.14495111 </i>
    <i name="eentropy">     -0.00000000 </i>
    <i name="bandstr">      4.37382590 </i>
    <i name="atom">    824.52596983 </i>
    <i name="e_fr_energy">    -43.39471164 </i>
    <i name="e_wo_entrp">    -43.39471164 </i>
    <i name="e_0_energy">    -43.39471164 </i>
   </energy>
  </scstep>
  <scstep>
   <time name="dav">    0.60    0.60</time>
   <time name="total">    0.60    0.61</time>
   <energy>
    <i name="e_fr_energy">    -43.40234965 </i>
    <i name="e_wo_entrp">    -43.40234965 </i>
    <i name="e_0_energy">    -43.40234965 </i>
   </energy>
  </scstep>
  <scstep>
   <time name="dav">    0.59    0.59</time>
   <time name="total">    0.63    0.63</time>
   <energy>
    <i name="e_fr_energy">    -43.40243317 </i>
    <i name="e_wo_entrp">    -43.40243317 </i>
    <i name="e_0_energy">    -43.40243317 </i>
   </energy>
  </scstep>
  <scstep>
   <time name="dav">    0.51    0.52</time>
   <time name="total">    0.55    0.56</time>
   <energy>
    <i name="e_fr_energy">    -43.32999881 </i>
    <i name="e_wo_entrp">    -43.32999881 </i>
    <i name="e_0_energy">    -43.32999881 </i>
   </energy>
  </scstep>
  <scstep>
   <time name="dav">    0.55    0.56</time>
   <time name="total">    0.59    0.60</time>
   <energy>
    <i name="e_fr_energy">    -43.29391318 </i>
    <i name="e_wo_entrp">    -43.29391317 </i>
    <i name="e_0_energy">    -43.29391317 </i>
   </energy>
  </scstep>
  <scstep>
   <time name="dav">    0.57    0.57</time>
   <time name="total">    0.61    0.61</time>
   <energy>
    <i name="e_fr_energy">    -43.29372986 </i>
    <i name="e_wo_entrp">    -43.29372985 </i>
    <i name="e_0_energy">    -43.29372986 </i>
   </energy>
  </scstep>
  <scstep>
   <time name="dav">    0.56    0.56</time>
   <time name="total">    0.57    0.58</time>
   <energy>
    <i name="alphaZ">     12.54587865 </i>
    <i name="ewald">   -893.14566845 </i>
    <i name="hartreedc">    -63.04384327 </i>
    <i name="XCdc">    -73.11732925 </i>
    <i name="pawpsdc">   2959.04331622 </i>
    <i name="pawaedc">  -2818.95777360 </i>
    <i name="eentropy">     -0.00000000 </i>
    <i name="bandstr">      8.85580207 </i>
    <i name="atom">    824.52596983 </i>
    <i name="e_fr_energy">    -43.29364780 </i>
    <i name="e_wo_entrp">    -43.29364780 </i>
    <i name="e_0_energy">    -43.29364780 </i>
   </energy>
  </scstep>
  <structure>
   <crystal>
    <varray name="basis" >
     <v>       5.55833177       0.00000000      -0.00000000 </v>
     <v>      -0.00000000       5.55833177       0.00000000 </v>
     <v>      -0.00000000       0.00000000       5.55833177 </v>
    </varray>
    <i name="volume">    171.72494897 </i>
    <varray name="rec_basis" >
     <v>       0.17991010       0.00000000       0.00000000 </v>
     <v>      -0.00000000       0.17991010      -0.00000000 </v>
     <v>       0.00000000      -0.00000000       0.17991010 </v>
    </varray>
   </crystal>
   <varray name="positions" >
    <v>      -0.00000000       0.00000000      -0.00000000 </v>
    <v>      -0.00000000       0.50000000       0.50000000 </v>
    <v>       0.50000000       0.00000000       0.50000000 </v>
    <v>       0.50000000       0.50000000       0.00000000 </v>
    <v>       0.25000000       0.25000000       0.25000000 </v>
    <v>       0.75000000       0.75000000       0.25000000 </v>
    <v>       0.75000000       0.25000000       0.75000000 </v>
    <v>       0.25000000       0.75000000       0.75000000 </v>
   </varray>
  </structure>
  <varray name="forces" >
   <v>       0.00000000       0.00000000      -0.00000000 </v>
   <v>       0.00000000      -0.00000000       0.00000000 </v>
   <v>       0.00000000       0.00000000       0.00000000 </v>
   <v>       0.00000000       0.00000000       0.00000000 </v>
   <v>      -0.00000000      -0.00000000       0.00000000 </v>
   <v>      -0.00000000      -0.00000000       0.00000000 </v>
   <v>      -0.00000000       0.00000000       0.00000000 </v>
   <v>      -0.00000000      -0.00000000      -0.00000000 </v>
  </varray>
  <varray name="stress" >
   <v>     -39.23235762      -0.00000000      -0.00000000 </v>
   <v>       0.00000000     -39.23235762      -0.00000000 </v>
   <v>      -0.00000000       0.00000000     -39.23235762 </v>
  </varray>
  <energy>
   <i name="e_fr_energy">    -43.29364780 </i>
   <i name="e_wo_entrp">    -43.29364780 </i>
   <i name="e_0_energy">     -0.00000000 </i>
  </energy>
  <time name="totalsc">    4.42    4.48</time>
 </calculation>
 <calculation>
  <scstep>
   <time name="dav">    0.55    0.55</time>
   <time name="total">    0.56    0.56</time>
   <energy>
    <i name="alphaZ">     13.16962788 </i>
    <i name="ewald">   -907.70857189 </i>
    <i name="hartreedc">    -64.08486288 </i>
    <i name="XCdc">    -72.17964051 </i>
    <i name="pawpsdc">   2989.85171037 </i>
    <i name="pawaedc">  -2849.77251248 </i>
    <i name="eentropy">     -0.00000038 </i>
    <i name="bandstr">     22.75066010 </i>
    <i name="atom">    824.52596983 </i>
    <i name="e_fr_energy">    -43.44761998 </i>
    <i name="e_wo_entrp">    -43.44761959 </i>
    <i name="e_0_energy">    -43.44761979 </i>
   </energy>
  </scstep>
  <scstep>
   <time name="dav">    0.61    0.61</time>
   <time name="total">    0.61    0.62</time>
   <energy>
    <i name="e_fr_energy">    -43.45236202 </i>
    <i name="e_wo_entrp">    -43.45236163 </i>
    <i name="e_0_energy">    -43.45236183 </i>
   </energy>
  </scstep>
  <scstep>
   <time name="dav">    0.66    0.67</time>
   <time name="total">    0.69    0.71</time>
   <energy>
    <i name="e_fr_energy">    -43.45239692 </i>
    <i name="e_wo_entrp">    -43.45239653 </i>
    <i name="e_0_energy">    -43.45239672 </i>
   </energy>
  </scstep>
  <scstep>
   <time name="dav">    0.59    0.59</time>
   <time name="total">    0.63    0.64</time>
   <energy>
    <i name="e_fr_energy">    -43.41629236 </i>
    <i name="e_wo_entrp">    -43.41629222 </i>
    <i name="e_0_energy">    -43.41629229 </i>
   </energy>
  </scstep>
  <scstep>
   <time name="dav">    0.55    0.55</time>
   <time name="total">    0.59    0.59</time>
   <energy>
    <i name="e_fr_energy">    -43.39850405 </i>
    <i name="e_wo_entrp">    -43.39850401 </i>
    <i name="e_0_energy">    -43.39850403 </i>
   </energy>
  </scstep>
  <scstep>
   <time name="dav">    0.62    0.62</time>
   <time name="total">    0.66    0.79</time>
   <energy>
    <i name="e_fr_energy">    -43.39849171 </i>
    <i name="e_wo_entrp">    -43.39849167 </i>
    <i name="e_0_energy">    -43.39849169 </i>
   </energy>
  </scstep>
  <scstep>
   <time name="dav">    0.58    0.60</time>
   <time name="total">    0.59    0.61</time>
   <energy>
    <i name="alphaZ">     13.16962788 </i>
    <i name="ewald">   -907.70857189 </i>
    <i name="hartreedc">    -60.68882226 </i>
    <i name="XCdc">    -72.23886950 </i>
    <i name="pawpsdc">   3327.93897853 </i>
    <i name="pawaedc">  -3188.01642370 </i>
    <i name="eentropy">     -0.00000004 </i>
    <i name="bandstr">     19.61969450 </i>
    <i name="atom">    824.52596983 </i>
    <i name="e_fr_energy">    -43.39841665 </i>
    <i name="e_wo_entrp">    -43.39841661 </i>
    <i name="e_0_energy">    -43.39841663 </i>
   </energy>
  </scstep>
  <structure>
   <crystal>
    <varray name="basis" >
     <v>       5.46915617       0.00000000      -0.00000000 </v>
     <v>      -0.00000000       5.46915617       0.00000000 </v>
     <v>      -0.00000000       0.00000000       5.46915617 </v>
    </varray>
    <i name="volume">    163.59159054 </i>
    <varray name="rec_basis" >
     <v>       0.18284356       0.00000000       0.00000000 </v>
     <v>      -0.00000000       0.18284356      -0.00000000 </v>
     <v>       0.00000000      -0.00000000       0.18284356 </v>
    </varray>
   </crystal>
   <varray name="positions" >
    <v>      -0.00000000       0.00000000      -0.00000000 </v>
    <v>      -0.00000000       0.50000000       0.50000000 </v>
    <v>       0.50000000       0.00000000       0.50000000 </v>
    <v>       0.50000000       0.50000000       0.00000000 </v>
    <v>       0.25000000       0.25000000       0.25000000 </v>
    <v>       0.75000000       0.75000000       0.25000000 </v>
    <v>       0.75000000       0.25000000       0.75000000 </v>
    <v>       0.25000000       0.75000000       0.75000000 </v>
   </varray>
  </structure>
  <varray name="forces" >
   <v>       0.00000000      -0.00000000      -0.00000000 </v>
   <v>       0.00000000      -0.00000000      -0.00000000 </v>
   <v>      -0.00000000      -0.00000000       0.00000000 </v>
   <v>       0.00000000      -0.00000000      -0.00000000 </v>
   <v>      -0.00000000       0.00000000      -0.00000000 </v>
   <v>      -0.00000000       0.00000000      -0.00000000 </v>
   <v>      -0.00000000       0.00000000       0.00000000 </v>
   <v>       0.00000000       0.00000000      -0.00000000 </v>
  </varray>
  <varray name="stress" >
   <v>      -0.27437437       0.00000000      -0.00000000 </v>
   <v>       0.00000000      -0.27437437      -0.00000000 </v>
   <v>      -0.00000000      -0.00000000      -0.27437437 </v>
  </varray>
  <energy>
   <i name="e_fr_energy">    -43.39841665 </i>
   <i name="e_wo_entrp">    -43.39841663 </i>
   <i name="e_0_energy">     -0.00000004 </i>
  </energy>
  <time name="totalsc">    4.78    5.04</time>
  <eigenvalues>
   <array>
    <dimension dim="1">band</dimension>
    <dimension dim="2">kpoint</dimension>
    <dimension dim="3">spin</dimension>
    <field>eigene</field>
    <field>occ</field>
    <set>
     <set comment="spin 1">
      <set comment="kpoint 1">
       <r>   -6.1997    1.0000 </r>
       <r>   -2.1321    1.0000 </r>
       <r>   -2.1321    1.0000 </r>
       <r>   -2.1321    1.0000 </r>
       <r>   -2.1321    1.0000 </r>
       <r>   -2.1321    1.0000 </r>
       <r>   -2.1321    1.0000 </r>
       <r>    2.8199    1.0000 </r>
       <r>    2.8199    1.0000 </r>
       <r>    2.8199    1.0000 </r>
       <r>    2.8199    1.0000 </r>
       <r>    2.8199    1.0000 </r>
       <r>    2.8199    1.0000 </r>
       <r>    5.6134    1.0000 </r>
       <r>    5.6134    1.0000 </r>
       <r>    5.6134    1.0000 </r>
       <r>    6.3664    0.0000 </r>
       <r>    6.3664    0.0000 </r>
       <r>    6.3664    0.0000 </r>
       <r>    6.3664    0.0000 </r>
       <r>    6.3664    0.0000 </r>
       <r>    6.3664    0.0000 </r>
       <r>    8.1706    0.0000 </r>
       <r>    8.1706    0.0000 </r>
       <r>    8.1706    0.0000 </r>
      </set>
      <set comment="kpoint 2">
       <r>   -6.1641    1.0000 </r>
       <r>   -2.8002    1.0000 </r>
       <r>   -2.1209    1.0000 </r>
       <r>   -2.1209    1.0000 </r>
       <r>   -2.1209    1.0000 </r>
       <r>   -2.1209    1.0000 </r>
       <r>   -1.4217    1.0000 </r>
       <r>    2.7194    1.0000 </r>
       <r>    2.7194    1.0000 </r>
       <r>    2.7194    1.0000 </r>
       <r>    2.7194    1.0000 </r>
       <r>    2.8520    1.0000 </r>
       <r>    2.8520    1.0000 </r>
       <r>    5.3713    1.0000 </r>
       <r>    5.4704    1.0000 </r>
       <r>    5.4704    1.0000 </r>
       <r>    6.2511    0.0000 </r>
       <r>    6.5573    0.0000 </r>
       <r>    6.5573    0.0000 </r>
       <r>    6.5573    0.0000 </r>
       <r>    6.5573    0.0000 </r>
       <r>    6.5779    0.0000 </r>
       <r>    8.0845    0.0000 </r>
       <r>    8.3573    0.0000 </r>
       <r>    8.3573    0.0000 </r>
      </set>
      <set comment="kpoint 3">
       <r>   -6.0577    1.0000 </r>
       <r>   -3.4197    1.0000 </r>
       <r>   -2.0898    1.0000 </r>
       <r>   -2.0898    1.0000 </r>
       <r>   -2.0898    1.0000 </r>
       <r>   -2.0898    1.0000 </r>
       <r>   -0.6761    1.0000 </r>
       <r>    2.4797    1.0000 </r>
       <r>    2.4797    1.0000 </r>
       <r>    2.4797    1.0000 </r>
       <r>    2.4797    1.0000 </r>
       <r>    2.9480    1.0000 </r>
       <r>    2.9480    1.0000 </r>
       <r>    4.7942    1.0000 </r>
       <r>    5.1312    1.0000 </r>
       <r>    5.1312    1.0000 </r>
       <r>    6.2271    0.0000 </r>
       <r>    6.8899    0.0000 </r>
       <r>    7.0695    0.0000 </r>
       <r>    7.0695    0.0000 </r>
       <r>    7.0695    0.0000 </r>
       <r>    7.0695    0.0000 </r>
       <r>    7.8563    0.0000 </r>
       <r>    8.8272    0.0000 </r>
       <r>    8.8272    0.0000 </r>
      </set>
      <set comment="kpoint 4">
       <r>   -5.8809    1.0000 </r>
       <r>   -3.9853    1.0000 </r>
       <r>   -2.0474    1.0000 </r>
       <r>   -2.0474    1.0000 </r>
       <r>   -2.0474    1.0000 </r>
       <r>   -2.0474    1.0000 </r>
       <r>    0.0969    1.0000 </r>
       <r>    2.2099    1.0000 </r>
       <r>    2.2099    1.0000 </r>
       <r>    2.2099    1.0000 </r>
       <r>    2.2099    1.0000 </r>
       <r>    3.1069    1.0000 </r>
       <r>    3.1069    1.0000 </r>
       <r>    4.0735    1.0000 </r>
       <r>    4.7234    1.0000 </r>
       <r>    4.7234    1.0000 </r>
       <r>    6.2882    0.0000 </r>
       <r>    7.3041    0.0000 </r>
       <r>    7.5488    0.0000 </r>
       <r>    7.7985    0.0000 </r>
       <r>    7.7985    0.0000 </r>
       <r>    7.7985    0.0000 </r>
       <r>    7.7985    0.0000 </r>
       <r>    9.4510    0.0000 </r>
       <r>    9.4510    0.0000 </r>
      </set>
      <set comment="kpoint 5">
       <r>   -5.6345    1.0000 </r>
       <r>   -4.4927    1.0000 </r>
       <r>   -2.0064    1.0000 </r>
       <r>   -2.0064    1.0000 </r>
       <r>   -2.0064    1.0000 </r>
       <r>   -2.0064    1.0000 </r>
       <r>    0.8890    1.0000 </r>
       <r>    1.9905    1.0000 </r>
       <r>    1.9905    1.0000 </r>
       <r>    1.9905    1.0000 </r>
       <r>    1.9905    1.0000 </r>
       <r>    3.2965    1.0000 </r>
       <r>    3.3271    1.0000 </r>
       <r>    3.3271    1.0000 </r>
       <r>    4.3153    1.0000 </r>
       <r>    4.3153    1.0000 </r>
       <r>    6.4280    0.0000 </r>
       <r>    7.2192    0.0000 </r>
       <r>    7.8191    0.0000 </r>
       <r>    8.6674    0.0000 </r>
       <r>    8.6674    0.0000 </r>
       <r>    8.6674    0.0000 </r>
       <r>    8.6674    0.0000 </r>
       <r>    9.6869    0.0000 </r>
       <r>   10.1572    0.0000 </r>
      </set>
      <set comment="kpoint 6">
       <r>   -5.3198    1.0000 </r>
       <r>   -4.9385    1.0000 </r>
       <r>   -1.9811    1.0000 </r>
       <r>   -1.9811    1.0000 </r>
       <r>   -1.9811    1.0000 </r>
       <r>   -1.9811    1.0000 </r>
       <r>    1.6919    1.0000 </r>
       <r>    1.8692    1.0000 </r>
       <r>    1.8692    1.0000 </r>
       <r>    1.8692    1.0000 </r>
       <r>    1.8692    1.0000 </r>
       <r>    2.4976    1.0000 </r>
       <r>    3.6055    1.0000 </r>
       <r>    3.6055    1.0000 </r>
       <r>    3.9377    1.0000 </r>
       <r>    3.9377    1.0000 </r>
       <r>    6.6381    0.0000 </r>
       <r>    6.9072    0.0000 </r>
       <r>    8.4235    0.0000 </r>
       <r>    9.0834    0.0000 </r>
       <r>    9.5958    0.0000 </r>
       <r>    9.5958    0.0000 </r>
       <r>    9.5958    0.0000 </r>
       <r>    9.5958    0.0000 </r>
       <r>   10.8522    0.0000 </r>
      </set>
      <set comment="kpoint 7">
       <r>   -6.1287    1.0000 </r>
       <r>   -2.7819    1.0000 </r>
       <r>   -2.7819    1.0000 </r>
       <r>   -2.1669    1.0000 </r>
       <r>   -2.0549    1.0000 </r>
       <r>   -1.4204    1.0000 </r>
       <r>   -1.4204    1.0000 </r>
       <r>    2.4218    1.0000 </r>
       <r>    2.7364    1.0000 </r>
       <r>    2.7364    1.0000 </r>
       <r>    2.7709    1.0000 </r>
       <r>    2.7709    1.0000 </r>
       <r>    2.8766    1.0000 </r>
       <r>    4.9786    1.0000 </r>
       <r>    5.3272    1.0000 </r>
       <r>    5.5809    1.0000 </r>
       <r>    6.4317    0.0000 </r>
       <r>    6.4505    0.0000 </r>
       <r>    6.4505    0.0000 </r>
       <r>    6.7585    0.0000 </r>
       <r>    6.7585    0.0000 </r>
       <r>    7.0059    0.0000 </r>
       <r>    8.2437    0.0000 </r>
       <r>    8.3033    0.0000 </r>
       <r>    8.3546    0.0000 </r>
      </set>
      <set comment="kpoint 8">
       <r>   -6.0226    1.0000 </r>
       <r>   -3.3963    1.0000 </r>
       <r>   -2.7289    1.0000 </r>
       <r>   -2.2010    1.0000 </r>
       <r>   -1.9666    1.0000 </r>
       <r>   -1.4202    1.0000 </r>
       <r>   -0.6891    1.0000 </r>
       <r>    2.0934    1.0000 </r>
       <r>    2.4598    1.0000 </r>
       <r>    2.5799    1.0000 </r>
       <r>    2.8208    1.0000 </r>
       <r>    2.8330    1.0000 </r>
       <r>    2.8915    1.0000 </r>
       <r>    4.4017    1.0000 </r>
       <r>    4.9869    1.0000 </r>
       <r>    5.3797    1.0000 </r>
       <r>    6.4327    0.0000 </r>
       <r>    6.6863    0.0000 </r>
       <r>    6.9788    0.0000 </r>
       <r>    7.0582    0.0000 </r>
       <r>    7.2496    0.0000 </r>
       <r>    7.6749    0.0000 </r>
       <r>    8.0476    0.0000 </r>
       <r>    8.6078    0.0000 </r>
       <r>    8.7535    0.0000 </r>
      </set>
      <set comment="kpoint 9">
       <r>   -5.8462    1.0000 </r>
       <r>   -3.9583    1.0000 </r>
       <r>   -2.6476    1.0000 </r>
       <r>   -2.2355    1.0000 </r>
       <r>   -1.8590    1.0000 </r>
       <r>   -1.4308    1.0000 </r>
       <r>    0.0633    1.0000 </r>
       <r>    1.8158    1.0000 </r>
       <r>    2.1404    1.0000 </r>
       <r>    2.3763    1.0000 </r>
       <r>    2.6507    1.0000 </r>
       <r>    2.9712    1.0000 </r>
       <r>    3.0814    1.0000 </r>
       <r>    3.7539    1.0000 </r>
       <r>    4.5775    1.0000 </r>
       <r>    4.9680    1.0000 </r>
       <r>    6.4981    0.0000 </r>
       <r>    7.2578    0.0000 </r>
       <r>    7.4594    0.0000 </r>
       <r>    7.7217    0.0000 </r>
       <r>    7.7479    0.0000 </r>
       <r>    7.9592    0.0000 </r>
       <r>    8.4910    0.0000 </r>
       <r>    9.1024    0.0000 </r>
       <r>    9.3857    0.0000 </r>
      </set>
      <set comment="kpoint 10">
       <r>   -5.6006    1.0000 </r>
       <r>   -4.4631    1.0000 </r>
       <r>   -2.5485    1.0000 </r>
       <r>   -2.2836    1.0000 </r>
       <r>   -1.7410    1.0000 </r>
       <r>   -1.4647    1.0000 </r>
       <r>    0.8260    1.0000 </r>
       <r>    1.6384    1.0000 </r>
       <r>    1.8592    1.0000 </r>
       <r>    2.2354    1.0000 </r>
       <r>    2.4373    1.0000 </r>
       <r>    3.0615    1.0000 </r>
       <r>    3.1854    1.0000 </r>
       <r>    3.3404    1.0000 </r>
       <r>    4.1682    1.0000 </r>
       <r>    4.5021    1.0000 </r>
       <r>    6.6400    0.0000 </r>
       <r>    7.4247    0.0000 </r>
       <r>    7.9604    0.0000 </r>
       <r>    8.0403    0.0000 </r>
       <r>    8.6012    0.0000 </r>
       <r>    8.8105    0.0000 </r>
       <r>    9.4035    0.0000 </r>
       <r>    9.5589    0.0000 </r>
       <r>   10.1031    0.0000 </r>
      </set>
      <set comment="kpoint 11">
       <r>   -5.2869    1.0000 </r>
       <r>   -4.9070    1.0000 </r>
       <r>   -2.4456    1.0000 </r>
       <r>   -2.3539    1.0000 </r>
       <r>   -1.6262    1.0000 </r>
       <r>   -1.5304    1.0000 </r>
       <r>    1.5865    1.0000 </r>
       <r>    1.5874    1.0000 </r>
       <r>    1.6647    1.0000 </r>
       <r>    2.1974    1.0000 </r>
       <r>    2.2710    1.0000 </r>
       <r>    2.3361    1.0000 </r>
       <r>    3.4603    1.0000 </r>
       <r>    3.6675    1.0000 </r>
       <r>    3.7907    1.0000 </r>
       <r>    4.0584    1.0000 </r>
       <r>    6.8501    0.0000 </r>
       <r>    7.1171    0.0000 </r>
       <r>    8.5494    0.0000 </r>
       <r>    8.9484    0.0000 </r>
       <r>    9.1825    0.0000 </r>
       <r>    9.5614    0.0000 </r>
       <r>    9.6131    0.0000 </r>
       <r>   10.2234    0.0000 </r>
       <r>   10.2416    0.0000 </r>
      </set>
      <set comment="kpoint 12">
       <r>   -5.9173    1.0000 </r>
       <r>   -3.3277    1.0000 </r>
       <r>   -3.3277    1.0000 </r>
       <r>   -2.3120    1.0000 </r>
       <r>   -1.8237    1.0000 </r>
       <r>   -0.7318    1.0000 </r>
       <r>   -0.7318    1.0000 </r>
       <r>    1.7566    1.0000 </r>
       <r>    2.5169    1.0000 </r>
       <r>    2.5169    1.0000 </r>
       <r>    2.7634    1.0000 </r>
       <r>    2.7634    1.0000 </r>
       <r>    3.0443    1.0000 </r>
       <r>    3.8253    1.0000 </r>
       <r>    4.6433    1.0000 </r>
       <r>    5.4714    1.0000 </r>
       <r>    6.6252    0.0000 </r>
       <r>    6.9725    0.0000 </r>
       <r>    6.9725    0.0000 </r>
       <r>    7.5240    0.0000 </r>
       <r>    7.5240    0.0000 </r>
       <r>    8.4310    0.0000 </r>
       <r>    8.4631    0.0000 </r>
       <r>    8.4994    0.0000 </r>
       <r>    8.6243    0.0000 </r>
      </set>
      <set comment="kpoint 13">
       <r>   -5.7424    1.0000 </r>
       <r>   -3.8784    1.0000 </r>
       <r>   -3.2183    1.0000 </r>
       <r>   -2.4353    1.0000 </r>
       <r>   -1.6589    1.0000 </r>
       <r>   -0.8122    1.0000 </r>
       <r>   -0.0380    1.0000 </r>
       <r>    1.5198    1.0000 </r>
       <r>    2.1612    1.0000 </r>
       <r>    2.6444    1.0000 </r>
       <r>    2.6477    1.0000 </r>
       <r>    3.0326    1.0000 </r>
       <r>    3.0550    1.0000 </r>
       <r>    3.2180    1.0000 </r>
       <r>    4.2301    1.0000 </r>
       <r>    5.2387    1.0000 </r>
       <r>    6.9387    0.0000 </r>
       <r>    7.0447    0.0000 </r>
       <r>    7.7236    0.0000 </r>
       <r>    7.8959    0.0000 </r>
       <r>    8.2085    0.0000 </r>
       <r>    8.2513    0.0000 </r>
       <r>    8.7273    0.0000 </r>
       <r>    9.2111    0.0000 </r>
       <r>    9.2947    0.0000 </r>
      </set>
      <set comment="kpoint 14">
       <r>   -5.4990    1.0000 </r>
       <r>   -4.3751    1.0000 </r>
       <r>   -3.0759    1.0000 </r>
       <r>   -2.5790    1.0000 </r>
       <r>   -1.4756    1.0000 </r>
       <r>   -0.9357    1.0000 </r>
       <r>    0.6483    1.0000 </r>
       <r>    1.4097    1.0000 </r>
       <r>    1.8342    1.0000 </r>
       <r>    2.5949    1.0000 </r>
       <r>    2.5982    1.0000 </r>
       <r>    2.8485    1.0000 </r>
       <r>    2.9261    1.0000 </r>
       <r>    3.3865    1.0000 </r>
       <r>    3.8186    1.0000 </r>
       <r>    4.8035    1.0000 </r>
       <r>    7.1884    0.0000 </r>
       <r>    7.5622    0.0000 </r>
       <r>    7.9482    0.0000 </r>
       <r>    8.3642    0.0000 </r>
       <r>    8.6073    0.0000 </r>
       <r>    9.0335    0.0000 </r>
       <r>    9.1671    0.0000 </r>
       <r>    9.9539    0.0000 </r>
       <r>   10.2208    0.0000 </r>
      </set>
      <set comment="kpoint 15">
       <r>   -5.1885    1.0000 </r>
       <r>   -4.8130    1.0000 </r>
       <r>   -2.9121    1.0000 </r>
       <r>   -2.7414    1.0000 </r>
       <r>   -1.2834    1.0000 </r>
       <r>   -1.0975    1.0000 </r>
       <r>    1.3174    1.0000 </r>
       <r>    1.4333    1.0000 </r>
       <r>    1.5816    1.0000 </r>
       <r>    1.9663    1.0000 </r>
       <r>    2.6379    1.0000 </r>
       <r>    2.7621    1.0000 </r>
       <r>    3.1151    1.0000 </r>
       <r>    3.4415    1.0000 </r>
       <r>    3.8171    1.0000 </r>
       <r>    4.3033    1.0000 </r>
       <r>    7.3953    0.0000 </r>
       <r>    7.6541    0.0000 </r>
       <r>    8.3874    0.0000 </r>
       <r>    8.9135    0.0000 </r>
       <r>    9.2968    0.0000 </r>
       <r>    9.4124    0.0000 </r>
       <r>    9.5769    0.0000 </r>
       <r>   10.0537    0.0000 </r>
       <r>   10.1233    0.0000 </r>
      </set>
      <set comment="kpoint 16">
       <r>   -5.5702    1.0000 </r>
       <r>   -3.7488    1.0000 </r>
       <r>   -3.7488    1.0000 </r>
       <r>   -2.6542    1.0000 </r>
       <r>   -1.4396    1.0000 </r>
       <r>   -0.2046    1.0000 </r>
       <r>   -0.2046    1.0000 </r>
       <r>    1.3497    1.0000 </r>
       <r>    2.2663    1.0000 </r>
       <r>    2.2663    1.0000 </r>
       <r>    2.6519    1.0000 </r>
       <r>    3.0135    1.0000 </r>
       <r>    3.0135    1.0000 </r>
       <r>    3.3148    1.0000 </r>
       <r>    3.8135    1.0000 </r>
       <r>    5.2602    1.0000 </r>
       <r>    6.9374    0.0000 </r>
       <r>    7.7982    0.0000 </r>
       <r>    7.7982    0.0000 </r>
       <r>    8.5500    0.0000 </r>
       <r>    8.5500    0.0000 </r>
       <r>    8.5984    0.0000 </r>
       <r>    8.8277    0.0000 </r>
       <r>    9.0659    0.0000 </r>
       <r>   10.1822    0.0000 </r>
      </set>
      <set comment="kpoint 17">
       <r>   -5.3307    1.0000 </r>
       <r>   -4.2307    1.0000 </r>
       <r>   -3.5749    1.0000 </r>
       <r>   -2.8901    1.0000 </r>
       <r>   -1.1991    1.0000 </r>
       <r>   -0.4246    1.0000 </r>
       <r>    0.3851    1.0000 </r>
       <r>    1.3139    1.0000 </r>
       <r>    1.9063    1.0000 </r>
       <r>    2.0848    1.0000 </r>
       <r>    2.4495    1.0000 </r>
       <r>    3.0568    1.0000 </r>
       <r>    3.3734    1.0000 </r>
       <r>    3.4007    1.0000 </r>
       <r>    3.4724    1.0000 </r>
       <r>    4.9877    1.0000 </r>
       <r>    7.3012    0.0000 </r>
       <r>    7.9390    0.0000 </r>
       <r>    8.6489    0.0000 </r>
       <r>    8.6803    0.0000 </r>
       <r>    8.7643    0.0000 </r>
       <r>    8.9837    0.0000 </r>
       <r>    9.3305    0.0000 </r>
       <r>    9.7452    0.0000 </r>
       <r>    9.8666    0.0000 </r>
      </set>
      <set comment="kpoint 18">
       <r>   -5.0258    1.0000 </r>
       <r>   -4.6580    1.0000 </r>
       <r>   -3.3654    1.0000 </r>
       <r>   -3.1323    1.0000 </r>
       <r>   -0.9416    1.0000 </r>
       <r>   -0.6776    1.0000 </r>
       <r>    0.9580    1.0000 </r>
       <r>    1.4061    1.0000 </r>
       <r>    1.5217    1.0000 </r>
       <r>    1.6105    1.0000 </r>
       <r>    2.7050    1.0000 </r>
       <r>    3.0254    1.0000 </r>
       <r>    3.1601    1.0000 </r>
       <r>    3.2888    1.0000 </r>
       <r>    3.9928    1.0000 </r>
       <r>    4.5249    1.0000 </r>
       <r>    7.9643    0.0000 </r>
       <r>    8.1371    0.0000 </r>
       <r>    8.3803    0.0000 </r>
       <r>    8.8161    0.0000 </r>
       <r>    9.1359    0.0000 </r>
       <r>    9.4501    0.0000 </r>
       <r>    9.6474    0.0000 </r>
       <r>    9.7321    0.0000 </r>
       <r>   10.1618    0.0000 </r>
      </set>
      <set comment="kpoint 19">
       <r>   -5.0972    1.0000 </r>
       <r>   -4.0341    1.0000 </r>
       <r>   -4.0341    1.0000 </r>
       <r>   -3.2060    1.0000 </r>
       <r>   -0.9044    1.0000 </r>
       <r>    0.0720    1.0000 </r>
       <r>    0.0720    1.0000 </r>
       <r>    1.3463    1.0000 </r>
       <r>    1.5677    1.0000 </r>
       <r>    2.0668    1.0000 </r>
       <r>    2.0668    1.0000 </r>
       <r>    2.9889    1.0000 </r>
       <r>    3.5903    1.0000 </r>
       <r>    3.5903    1.0000 </r>
       <r>    3.6725    1.0000 </r>
       <r>    4.9378    1.0000 </r>
       <r>    7.3486    0.0000 </r>
       <r>    8.5510    0.0000 </r>
       <r>    8.8129    0.0000 </r>
       <r>    8.8129    0.0000 </r>
       <r>    9.2823    0.0000 </r>
       <r>    9.2823    0.0000 </r>
       <r>    9.3362    0.0000 </r>
       <r>    9.6250    0.0000 </r>
       <r>    9.7787    0.0000 </r>
      </set>
      <set comment="kpoint 20">
       <r>   -4.8008    1.0000 </r>
       <r>   -4.4449    1.0000 </r>
       <r>   -3.7913    1.0000 </r>
       <r>   -3.5113    1.0000 </r>
       <r>   -0.5898    1.0000 </r>
       <r>   -0.2602    1.0000 </r>
       <r>    0.5636    1.0000 </r>
       <r>    1.0602    1.0000 </r>
       <r>    1.4938    1.0000 </r>
       <r>    1.7401    1.0000 </r>
       <r>    2.3071    1.0000 </r>
       <r>    2.6183    1.0000 </r>
       <r>    3.7095    1.0000 </r>
       <r>    3.7671    1.0000 </r>
       <r>    4.1419    1.0000 </r>
       <r>    4.6281    1.0000 </r>
       <r>    7.7464    0.0000 </r>
       <r>    8.4274    0.0000 </r>
       <r>    8.6009    0.0000 </r>
       <r>    8.8718    0.0000 </r>
       <r>    8.9956    0.0000 </r>
       <r>    9.2118    0.0000 </r>
       <r>    9.7679    0.0000 </r>
       <r>   10.2472    0.0000 </r>
       <r>   10.3822    0.0000 </r>
      </set>
      <set comment="kpoint 21">
       <r>   -4.5167    1.0000 </r>
       <r>   -4.1780    1.0000 </r>
       <r>   -4.1780    1.0000 </r>
       <r>   -3.8639    1.0000 </r>
       <r>   -0.2213    1.0000 </r>
       <r>    0.1653    1.0000 </r>
       <r>    0.1653    1.0000 </r>
       <r>    0.6053    1.0000 </r>
       <r>    1.6828    1.0000 </r>
       <r>    1.9592    1.0000 </r>
       <r>    1.9592    1.0000 </r>
       <r>    2.2563    1.0000 </r>
       <r>    4.0912    1.0000 </r>
       <r>    4.2019    1.0000 </r>
       <r>    4.2019    1.0000 </r>
       <r>    4.5307    1.0000 </r>
       <r>    7.8184    0.0000 </r>
       <r>    8.2170    0.0000 </r>
       <r>    8.2170    0.0000 </r>
       <r>    8.2644    0.0000 </r>
       <r>    9.9246    0.0000 </r>
       <r>    9.9246    0.0000 </r>
       <r>    9.9859    0.0000 </r>
       <r>   10.3089    0.0000 </r>
       <r>   10.7727    0.0000 </r>
      </set>
      <set comment="kpoint 22">
       <r>   -6.0934    1.0000 </r>
       <r>   -2.7665    1.0000 </r>
       <r>   -2.7665    1.0000 </r>
       <r>   -2.7665    1.0000 </r>
       <r>   -1.4193    1.0000 </r>
       <r>   -1.4193    1.0000 </r>
       <r>   -1.4193    1.0000 </r>
       <r>    2.4624    1.0000 </r>
       <r>    2.4624    1.0000 </r>
       <r>    2.4624    1.0000 </r>
       <r>    2.9084    1.0000 </r>
       <r>    2.9084    1.0000 </r>
       <r>    2.9084    1.0000 </r>
       <r>    4.6285    1.0000 </r>
       <r>    5.4495    1.0000 </r>
       <r>    5.4495    1.0000 </r>
       <r>    6.4446    0.0000 </r>
       <r>    6.4446    0.0000 </r>
       <r>    6.4446    0.0000 </r>
       <r>    7.0864    0.0000 </r>
       <r>    7.0864    0.0000 </r>
       <r>    7.0864    0.0000 </r>
       <r>    8.1601    0.0000 </r>
       <r>    8.4121    0.0000 </r>
       <r>    8.4121    0.0000 </r>
      </set>
      <set comment="kpoint 23">
       <r>   -5.9875    1.0000 </r>
       <r>   -3.3744    1.0000 </r>
       <r>   -2.7237    1.0000 </r>
       <r>   -2.7237    1.0000 </r>
       <r>   -1.4183    1.0000 </r>
       <r>   -1.4183    1.0000 </r>
       <r>   -0.7055    1.0000 </r>
       <r>    2.1417    1.0000 </r>
       <r>    2.1417    1.0000 </r>
       <r>    2.5846    1.0000 </r>
       <r>    2.8692    1.0000 </r>
       <r>    2.8692    1.0000 </r>
       <r>    3.0033    1.0000 </r>
       <r>    4.0653    1.0000 </r>
       <r>    5.1314    1.0000 </r>
       <r>    5.3211    1.0000 </r>
       <r>    6.4955    0.0000 </r>
       <r>    6.7160    0.0000 </r>
       <r>    6.7160    0.0000 </r>
       <r>    7.3145    0.0000 </r>
       <r>    7.7348    0.0000 </r>
       <r>    7.7348    0.0000 </r>
       <r>    8.1265    0.0000 </r>
       <r>    8.4301    0.0000 </r>
       <r>    8.8406    0.0000 </r>
      </set>
      <set comment="kpoint 24">
       <r>   -5.8117    1.0000 </r>
       <r>   -3.9322    1.0000 </r>
       <r>   -2.6632    1.0000 </r>
       <r>   -2.6632    1.0000 </r>
       <r>   -1.4221    1.0000 </r>
       <r>   -1.4221    1.0000 </r>
       <r>    0.0227    1.0000 </r>
       <r>    1.8678    1.0000 </r>
       <r>    1.8678    1.0000 </r>
       <r>    2.7017    1.0000 </r>
       <r>    2.7017    1.0000 </r>
       <r>    2.7895    1.0000 </r>
       <r>    3.1602    1.0000 </r>
       <r>    3.4545    1.0000 </r>
       <r>    4.7413    1.0000 </r>
       <r>    4.9144    1.0000 </r>
       <r>    6.6018    0.0000 </r>
       <r>    7.2907    0.0000 </r>
       <r>    7.2907    0.0000 </r>
       <r>    7.6700    0.0000 </r>
       <r>    7.8891    0.0000 </r>
       <r>    8.5422    0.0000 </r>
       <r>    8.5422    0.0000 </r>
       <r>    8.8528    0.0000 </r>
       <r>    9.4114    0.0000 </r>
      </set>
      <set comment="kpoint 25">
       <r>   -5.5668    1.0000 </r>
       <r>   -4.4341    1.0000 </r>
       <r>   -2.6020    1.0000 </r>
       <r>   -2.6020    1.0000 </r>
       <r>   -1.4322    1.0000 </r>
       <r>   -1.4322    1.0000 </r>
       <r>    0.7511    1.0000 </r>
       <r>    1.6803    1.0000 </r>
       <r>    1.6803    1.0000 </r>
       <r>    2.5174    1.0000 </r>
       <r>    2.5174    1.0000 </r>
       <r>    2.8181    1.0000 </r>
       <r>    3.0784    1.0000 </r>
       <r>    3.3773    1.0000 </r>
       <r>    4.3459    1.0000 </r>
       <r>    4.4049    1.0000 </r>
       <r>    6.7694    0.0000 </r>
       <r>    7.5785    0.0000 </r>
       <r>    8.0725    0.0000 </r>
       <r>    8.0725    0.0000 </r>
       <r>    8.1381    0.0000 </r>
       <r>    9.4031    0.0000 </r>
       <r>    9.4468    0.0000 </r>
       <r>    9.4468    0.0000 </r>
       <r>   10.0545    0.0000 </r>
      </set>
      <set comment="kpoint 26">
       <r>   -5.2542    1.0000 </r>
       <r>   -4.8758    1.0000 </r>
       <r>   -2.5626    1.0000 </r>
       <r>   -2.5626    1.0000 </r>
       <r>   -1.4421    1.0000 </r>
       <r>   -1.4421    1.0000 </r>
       <r>    1.4657    1.0000 </r>
       <r>    1.5891    1.0000 </r>
       <r>    1.5891    1.0000 </r>
       <r>    2.1560    1.0000 </r>
       <r>    2.4020    1.0000 </r>
       <r>    2.4020    1.0000 </r>
       <r>    3.4508    1.0000 </r>
       <r>    3.6514    1.0000 </r>
       <r>    3.9002    1.0000 </r>
       <r>    3.9772    1.0000 </r>
       <r>    6.9954    0.0000 </r>
       <r>    7.2706    0.0000 </r>
       <r>    8.7003    0.0000 </r>
       <r>    8.9770    0.0000 </r>
       <r>    8.9770    0.0000 </r>
       <r>    9.2932    0.0000 </r>
       <r>    9.9530    0.0000 </r>
       <r>    9.9530    0.0000 </r>
       <r>   10.4402    0.0000 </r>
      </set>
      <set comment="kpoint 27">
       <r>   -5.8826    1.0000 </r>
       <r>   -3.3106    1.0000 </r>
       <r>   -3.3106    1.0000 </r>
       <r>   -2.7140    1.0000 </r>
       <r>   -1.4106    1.0000 </r>
       <r>   -0.7572    1.0000 </r>
       <r>   -0.7572    1.0000 </r>
       <r>    1.8241    1.0000 </r>
       <r>    2.2864    1.0000 </r>
       <r>    2.2864    1.0000 </r>
       <r>    2.9784    1.0000 </r>
       <r>    2.9784    1.0000 </r>
       <r>    3.0749    1.0000 </r>
       <r>    3.5105    1.0000 </r>
       <r>    4.8826    1.0000 </r>
       <r>    5.3713    1.0000 </r>
       <r>    6.6647    0.0000 </r>
       <r>    6.8049    0.0000 </r>
       <r>    6.8049    0.0000 </r>
       <r>    7.9142    0.0000 </r>
       <r>    7.9142    0.0000 </r>
       <r>    8.1222    0.0000 </r>
       <r>    8.4799    0.0000 </r>
       <r>    8.5779    0.0000 </r>
       <r>    8.8618    0.0000 </r>
      </set>
      <set comment="kpoint 28">
       <r>   -5.7083    1.0000 </r>
       <r>   -3.8551    1.0000 </r>
       <r>   -3.2109    1.0000 </r>
       <r>   -2.7167    1.0000 </r>
       <r>   -1.3884    1.0000 </r>
       <r>   -0.8479    1.0000 </r>
       <r>   -0.0970    1.0000 </r>
       <r>    1.6062    1.0000 </r>
       <r>    2.0185    1.0000 </r>
       <r>    2.5247    1.0000 </r>
       <r>    2.8582    1.0000 </r>
       <r>    2.9277    1.0000 </r>
       <r>    3.0890    1.0000 </r>
       <r>    3.1636    1.0000 </r>
       <r>    4.4840    1.0000 </r>
       <r>    5.1521    1.0000 </r>
       <r>    6.9513    0.0000 </r>
       <r>    6.9789    0.0000 </r>
       <r>    7.3878    0.0000 </r>
       <r>    8.1705    0.0000 </r>
       <r>    8.2117    0.0000 </r>
       <r>    8.6345    0.0000 </r>
       <r>    8.6968    0.0000 </r>
       <r>    9.2981    0.0000 </r>
       <r>    9.3386    0.0000 </r>
      </set>
      <set comment="kpoint 29">
       <r>   -5.4658    1.0000 </r>
       <r>   -4.3478    1.0000 </r>
       <r>   -3.0862    1.0000 </r>
       <r>   -2.7532    1.0000 </r>
       <r>   -1.3361    1.0000 </r>
       <r>   -0.9728    1.0000 </r>
       <r>    0.5456    1.0000 </r>
       <r>    1.5083    1.0000 </r>
       <r>    1.7998    1.0000 </r>
       <r>    2.3438    1.0000 </r>
       <r>    2.7558    1.0000 </r>
       <r>    2.8460    1.0000 </r>
       <r>    2.9719    1.0000 </r>
       <r>    3.4313    1.0000 </r>
       <r>    4.0592    1.0000 </r>
       <r>    4.7202    1.0000 </r>
       <r>    7.1516    0.0000 </r>
       <r>    7.5996    0.0000 </r>
       <r>    7.9699    0.0000 </r>
       <r>    8.1676    0.0000 </r>
       <r>    8.6223    0.0000 </r>
       <r>    9.0497    0.0000 </r>
       <r>    9.5731    0.0000 </r>
       <r>    9.9034    0.0000 </r>
       <r>   10.2504    0.0000 </r>
      </set>
      <set comment="kpoint 30">
       <r>   -5.1566    1.0000 </r>
       <r>   -4.7829    1.0000 </r>
       <r>   -2.9534    1.0000 </r>
       <r>   -2.8351    1.0000 </r>
       <r>   -1.2423    1.0000 </r>
       <r>   -1.1134    1.0000 </r>
       <r>    1.1630    1.0000 </r>
       <r>    1.5244    1.0000 </r>
       <r>    1.6307    1.0000 </r>
       <r>    1.7588    1.0000 </r>
       <r>    2.7436    1.0000 </r>
       <r>    2.8299    1.0000 </r>
       <r>    3.2265    1.0000 </r>
       <r>    3.6366    1.0000 </r>
       <r>    3.7897    1.0000 </r>
       <r>    4.2339    1.0000 </r>
       <r>    7.3990    0.0000 </r>
       <r>    7.6808    0.0000 </r>
       <r>    8.4212    0.0000 </r>
       <r>    9.0543    0.0000 </r>
       <r>    9.1249    0.0000 </r>
       <r>    9.3994    0.0000 </r>
       <r>    9.4915    0.0000 </r>
       <r>   10.0574    0.0000 </r>
       <r>   10.0785    0.0000 </r>
      </set>
      <set comment="kpoint 31">
       <r>   -5.5368    1.0000 </r>
       <r>   -3.7309    1.0000 </r>
       <r>   -3.7309    1.0000 </r>
       <r>   -2.8208    1.0000 </r>
       <r>   -1.3120    1.0000 </r>
       <r>   -0.2852    1.0000 </r>
       <r>   -0.2852    1.0000 </r>
       <r>    1.4677    1.0000 </r>
       <r>    2.2525    1.0000 </r>
       <r>    2.2525    1.0000 </r>
       <r>    2.3737    1.0000 </r>
       <r>    3.1278    1.0000 </r>
       <r>    3.1278    1.0000 </r>
       <r>    3.3430    1.0000 </r>
       <r>    4.0847    1.0000 </r>
       <r>    5.2003    1.0000 </r>
       <r>    6.9790    0.0000 </r>
       <r>    7.5445    0.0000 </r>
       <r>    7.5445    0.0000 </r>
       <r>    8.2664    0.0000 </r>
       <r>    8.8601    0.0000 </r>
       <r>    8.9569    0.0000 </r>
       <r>    8.9569    0.0000 </r>
       <r>    9.2057    0.0000 </r>
       <r>   10.2217    0.0000 </r>
      </set>
      <set comment="kpoint 32">
       <r>   -5.2985    1.0000 </r>
       <r>   -4.2068    1.0000 </r>
       <r>   -3.5667    1.0000 </r>
       <r>   -2.9773    1.0000 </r>
       <r>   -1.1795    1.0000 </r>
       <r>   -0.5181    1.0000 </r>
       <r>    0.2548    1.0000 </r>
       <r>    1.4569    1.0000 </r>
       <r>    1.8287    1.0000 </r>
       <r>    1.9856    1.0000 </r>
       <r>    2.5476    1.0000 </r>
       <r>    3.1370    1.0000 </r>
       <r>    3.4036    1.0000 </r>
       <r>    3.5109    1.0000 </r>
       <r>    3.6659    1.0000 </r>
       <r>    4.9412    1.0000 </r>
       <r>    7.3398    0.0000 </r>
       <r>    7.7528    0.0000 </r>
       <r>    8.3206    0.0000 </r>
       <r>    8.3759    0.0000 </r>
       <r>    8.8560    0.0000 </r>
       <r>    9.3226    0.0000 </r>
       <r>    9.6784    0.0000 </r>
       <r>    9.6935    0.0000 </r>
       <r>    9.9935    0.0000 </r>
      </set>
      <set comment="kpoint 33">
       <r>   -4.9953    1.0000 </r>
       <r>   -4.6301    1.0000 </r>
       <r>   -3.3740    1.0000 </r>
       <r>   -3.1700    1.0000 </r>
       <r>   -0.9920    1.0000 </r>
       <r>   -0.7637    1.0000 </r>
       <r>    0.7784    1.0000 </r>
       <r>    1.2989    1.0000 </r>
       <r>    1.5577    1.0000 </r>
       <r>    1.7440    1.0000 </r>
       <r>    2.8869    1.0000 </r>
       <r>    3.2146    1.0000 </r>
       <r>    3.2618    1.0000 </r>
       <r>    3.3277    1.0000 </r>
       <r>    3.9837    1.0000 </r>
       <r>    4.4907    1.0000 </r>
       <r>    7.9977    0.0000 </r>
       <r>    7.9991    0.0000 </r>
       <r>    8.2515    0.0000 </r>
       <r>    8.8441    0.0000 </r>
       <r>    9.1310    0.0000 </r>
       <r>    9.2282    0.0000 </r>
       <r>    9.6118    0.0000 </r>
       <r>    9.8341    0.0000 </r>
       <r>   10.2112    0.0000 </r>
      </set>
      <set comment="kpoint 34">
       <r>   -5.0666    1.0000 </r>
       <r>   -4.0159    1.0000 </r>
       <r>   -4.0159    1.0000 </r>
       <r>   -3.2428    1.0000 </r>
       <r>   -0.9668    1.0000 </r>
       <r>   -0.0731    1.0000 </r>
       <r>   -0.0731    1.0000 </r>
       <r>    1.3218    1.0000 </r>
       <r>    1.5233    1.0000 </r>
       <r>    2.2296    1.0000 </r>
       <r>    2.2296    1.0000 </r>
       <r>    3.2589    1.0000 </r>
       <r>    3.6220    1.0000 </r>
       <r>    3.6220    1.0000 </r>
       <r>    3.6962    1.0000 </r>
       <r>    4.9138    1.0000 </r>
       <r>    7.3848    0.0000 </r>
       <r>    8.3925    0.0000 </r>
       <r>    8.5186    0.0000 </r>
       <r>    8.5186    0.0000 </r>
       <r>    9.2705    0.0000 </r>
       <r>    9.2963    0.0000 </r>
       <r>    9.2963    0.0000 </r>
       <r>    9.4943    0.0000 </r>
       <r>   10.1783    0.0000 </r>
      </set>
      <set comment="kpoint 35">
       <r>   -4.7727    1.0000 </r>
       <r>   -4.4206    1.0000 </r>
       <r>   -3.7828    1.0000 </r>
       <r>   -3.5193    1.0000 </r>
       <r>   -0.7041    1.0000 </r>
       <r>   -0.4010    1.0000 </r>
       <r>    0.3742    1.0000 </r>
       <r>    0.8367    1.0000 </r>
       <r>    1.6894    1.0000 </r>
       <r>    1.9331    1.0000 </r>
       <r>    2.5273    1.0000 </r>
       <r>    2.8735    1.0000 </r>
       <r>    3.7361    1.0000 </r>
       <r>    3.7905    1.0000 </r>
       <r>    4.1459    1.0000 </r>
       <r>    4.6166    1.0000 </r>
       <r>    7.7758    0.0000 </r>
       <r>    8.4466    0.0000 </r>
       <r>    8.4968    0.0000 </r>
       <r>    8.6795    0.0000 </r>
       <r>    8.9502    0.0000 </r>
       <r>    9.1005    0.0000 </r>
       <r>    9.4083    0.0000 </r>
       <r>   10.1273    0.0000 </r>
       <r>   10.3745    0.0000 </r>
      </set>
      <set comment="kpoint 36">
       <r>   -4.4923    1.0000 </r>
       <r>   -4.1596    1.0000 </r>
       <r>   -4.1596    1.0000 </r>
       <r>   -3.8552    1.0000 </r>
       <r>   -0.3786    1.0000 </r>
       <r>   -0.0168    1.0000 </r>
       <r>   -0.0168    1.0000 </r>
       <r>    0.3955    1.0000 </r>
       <r>    1.9060    1.0000 </r>
       <r>    2.1916    1.0000 </r>
       <r>    2.1916    1.0000 </r>
       <r>    2.5096    1.0000 </r>
       <r>    4.1067    1.0000 </r>
       <r>    4.2127    1.0000 </r>
       <r>    4.2127    1.0000 </r>
       <r>    4.5315    1.0000 </r>
       <r>    7.8383    0.0000 </r>
       <r>    8.2188    0.0000 </r>
       <r>    8.2188    0.0000 </r>
       <r>    8.2366    0.0000 </r>
       <r>    9.6308    0.0000 </r>
       <r>    9.6308    0.0000 </r>
       <r>    9.8229    0.0000 </r>
       <r>    9.9323    0.0000 </r>
       <r>   10.5987    0.0000 </r>
      </set>
      <set comment="kpoint 37">
       <r>   -5.7786    1.0000 </r>
       <r>   -3.2627    1.0000 </r>
       <r>   -3.2627    1.0000 </r>
       <r>   -3.2627    1.0000 </r>
       <r>   -0.8309    1.0000 </r>
       <r>   -0.8309    1.0000 </r>
       <r>   -0.8309    1.0000 </r>
       <r>    2.0273    1.0000 </r>
       <r>    2.0273    1.0000 </r>
       <r>    2.0273    1.0000 </r>
       <r>    2.9684    1.0000 </r>
       <r>    3.1661    1.0000 </r>
       <r>    3.1661    1.0000 </r>
       <r>    3.1661    1.0000 </r>
       <r>    5.1147    1.0000 </r>
       <r>    5.1147    1.0000 </r>
       <r>    6.7815    0.0000 </r>
       <r>    6.7815    0.0000 </r>
       <r>    6.7815    0.0000 </r>
       <r>    7.8385    0.0000 </r>
       <r>    8.6280    0.0000 </r>
       <r>    8.6280    0.0000 </r>
       <r>    8.6280    0.0000 </r>
       <r>    8.8794    0.0000 </r>
       <r>    8.8794    0.0000 </r>
      </set>
      <set comment="kpoint 38">
       <r>   -5.6062    1.0000 </r>
       <r>   -3.7871    1.0000 </r>
       <r>   -3.1947    1.0000 </r>
       <r>   -3.1947    1.0000 </r>
       <r>   -0.9399    1.0000 </r>
       <r>   -0.9399    1.0000 </r>
       <r>   -0.2604    1.0000 </r>
       <r>    1.8591    1.0000 </r>
       <r>    1.8591    1.0000 </r>
       <r>    2.3647    1.0000 </r>
       <r>    2.4055    1.0000 </r>
       <r>    3.1916    1.0000 </r>
       <r>    3.1916    1.0000 </r>
       <r>    3.3165    1.0000 </r>
       <r>    4.7803    1.0000 </r>
       <r>    4.9883    1.0000 </r>
       <r>    6.9692    0.0000 </r>
       <r>    7.0977    0.0000 </r>
       <r>    7.0977    0.0000 </r>
       <r>    7.8922    0.0000 </r>
       <r>    8.7623    0.0000 </r>
       <r>    8.8777    0.0000 </r>
       <r>    9.2915    0.0000 </r>
       <r>    9.4713    0.0000 </r>
       <r>    9.4713    0.0000 </r>
      </set>
      <set comment="kpoint 39">
       <r>   -5.3665    1.0000 </r>
       <r>   -4.2670    1.0000 </r>
       <r>   -3.1254    1.0000 </r>
       <r>   -3.1254    1.0000 </r>
       <r>   -1.0527    1.0000 </r>
       <r>   -1.0527    1.0000 </r>
       <r>    0.2838    1.0000 </r>
       <r>    1.7809    1.0000 </r>
       <r>    1.7809    1.0000 </r>
       <r>    1.8568    1.0000 </r>
       <r>    2.8236    1.0000 </r>
       <r>    3.1129    1.0000 </r>
       <r>    3.1129    1.0000 </r>
       <r>    3.5236    1.0000 </r>
       <r>    4.4266    1.0000 </r>
       <r>    4.5459    1.0000 </r>
       <r>    7.2164    0.0000 </r>
       <r>    7.7096    0.0000 </r>
       <r>    7.7096    0.0000 </r>
       <r>    7.9939    0.0000 </r>
       <r>    8.8603    0.0000 </r>
       <r>    9.2300    0.0000 </r>
       <r>    9.7636    0.0000 </r>
       <r>   10.2720    0.0000 </r>
       <r>   10.2720    0.0000 </r>
      </set>
      <set comment="kpoint 40">
       <r>   -5.0614    1.0000 </r>
       <r>   -4.6937    1.0000 </r>
       <r>   -3.0803    1.0000 </r>
       <r>   -3.0803    1.0000 </r>
       <r>   -1.1258    1.0000 </r>
       <r>   -1.1258    1.0000 </r>
       <r>    0.8074    1.0000 </r>
       <r>    1.3267    1.0000 </r>
       <r>    1.7590    1.0000 </r>
       <r>    1.7590    1.0000 </r>
       <r>    3.0375    1.0000 </r>
       <r>    3.0375    1.0000 </r>
       <r>    3.3740    1.0000 </r>
       <r>    3.7830    1.0000 </r>
       <r>    3.9699    1.0000 </r>
       <r>    4.0878    1.0000 </r>
       <r>    7.5040    0.0000 </r>
       <r>    7.7968    0.0000 </r>
       <r>    8.5208    0.0000 </r>
       <r>    8.5208    0.0000 </r>
       <r>    9.3905    0.0000 </r>
       <r>    9.4651    0.0000 </r>
       <r>    9.4651    0.0000 </r>
       <r>    9.6505    0.0000 </r>
       <r>   10.2392    0.0000 </r>
      </set>
      <set comment="kpoint 41">
       <r>   -5.4371    1.0000 </r>
       <r>   -3.6807    1.0000 </r>
       <r>   -3.6807    1.0000 </r>
       <r>   -3.1870    1.0000 </r>
       <r>   -1.0453    1.0000 </r>
       <r>   -0.4899    1.0000 </r>
       <r>   -0.4899    1.0000 </r>
       <r>    1.8019    1.0000 </r>
       <r>    1.8623    1.0000 </r>
       <r>    2.2548    1.0000 </r>
       <r>    2.2548    1.0000 </r>
       <r>    3.3653    1.0000 </r>
       <r>    3.3653    1.0000 </r>
       <r>    3.4267    1.0000 </r>
       <r>    4.5332    1.0000 </r>
       <r>    5.0344    1.0000 </r>
       <r>    7.1015    0.0000 </r>
       <r>    7.2883    0.0000 </r>
       <r>    7.2883    0.0000 </r>
       <r>    7.7796    0.0000 </r>
       <r>    8.9599    0.0000 </r>
       <r>    9.2454    0.0000 </r>
       <r>    9.6953    0.0000 </r>
       <r>    9.6953    0.0000 </r>
       <r>   10.3394    0.0000 </r>
      </set>
      <set comment="kpoint 42">
       <r>   -5.2024    1.0000 </r>
       <r>   -4.1368    1.0000 </r>
       <r>   -3.5480    1.0000 </r>
       <r>   -3.2126    1.0000 </r>
       <r>   -1.1055    1.0000 </r>
       <r>   -0.7341    1.0000 </r>
       <r>   -0.0515    1.0000 </r>
       <r>    1.3407    1.0000 </r>
       <r>    1.8401    1.0000 </r>
       <r>    2.1661    1.0000 </r>
       <r>    2.7452    1.0000 </r>
       <r>    3.3592    1.0000 </r>
       <r>    3.4945    1.0000 </r>
       <r>    3.6168    1.0000 </r>
       <r>    4.1559    1.0000 </r>
       <r>    4.8075    1.0000 </r>
       <r>    7.4526    0.0000 </r>
       <r>    7.5367    0.0000 </r>
       <r>    7.8848    0.0000 </r>
       <r>    7.9490    0.0000 </r>
       <r>    8.8927    0.0000 </r>
       <r>    9.5474    0.0000 </r>
       <r>    9.8566    0.0000 </r>
       <r>   10.0135    0.0000 </r>
       <r>   10.2170    0.0000 </r>
      </set>
      <set comment="kpoint 43">
       <r>   -4.9048    1.0000 </r>
       <r>   -4.5477    1.0000 </r>
       <r>   -3.4085    1.0000 </r>
       <r>   -3.2885    1.0000 </r>
       <r>   -1.0746    1.0000 </r>
       <r>   -0.9428    1.0000 </r>
       <r>    0.3898    1.0000 </r>
       <r>    0.8505    1.0000 </r>
       <r>    1.9403    1.0000 </r>
       <r>    2.0610    1.0000 </r>
       <r>    3.2607    1.0000 </r>
       <r>    3.3811    1.0000 </r>
       <r>    3.4468    1.0000 </r>
       <r>    3.7354    1.0000 </r>
       <r>    3.9590    1.0000 </r>
       <r>    4.3865    1.0000 </r>
       <r>    7.8114    0.0000 </r>
       <r>    8.0219    0.0000 </r>
       <r>    8.0934    0.0000 </r>
       <r>    8.6756    0.0000 </r>
       <r>    8.9265    0.0000 </r>
       <r>    9.0450    0.0000 </r>
       <r>    9.5700    0.0000 </r>
       <r>    9.5947    0.0000 </r>
       <r>   10.0090    0.0000 </r>
      </set>
      <set comment="kpoint 44">
       <r>   -4.9756    1.0000 </r>
       <r>   -3.9647    1.0000 </r>
       <r>   -3.9647    1.0000 </r>
       <r>   -3.3591    1.0000 </r>
       <r>   -1.0717    1.0000 </r>
       <r>   -0.3931    1.0000 </r>
       <r>   -0.3931    1.0000 </r>
       <r>    0.8472    1.0000 </r>
       <r>    1.9746    1.0000 </r>
       <r>    2.5899    1.0000 </r>
       <r>    2.5899    1.0000 </r>
       <r>    3.7164    1.0000 </r>
       <r>    3.7164    1.0000 </r>
       <r>    3.7661    1.0000 </r>
       <r>    3.7892    1.0000 </r>
       <r>    4.8416    1.0000 </r>
       <r>    7.4881    0.0000 </r>
       <r>    7.9698    0.0000 </r>
       <r>    8.1034    0.0000 </r>
       <r>    8.1034    0.0000 </r>
       <r>    9.1438    0.0000 </r>
       <r>    9.3302    0.0000 </r>
       <r>    9.3302    0.0000 </r>
       <r>    9.3366    0.0000 </r>
       <r>   10.6372    0.0000 </r>
      </set>
      <set comment="kpoint 45">
       <r>   -4.6897    1.0000 </r>
       <r>   -4.3498    1.0000 </r>
       <r>   -3.7631    1.0000 </r>
       <r>   -3.5520    1.0000 </r>
       <r>   -0.9316    1.0000 </r>
       <r>   -0.6970    1.0000 </r>
       <r>   -0.0205    1.0000 </r>
       <r>    0.3921    1.0000 </r>
       <r>    2.1643    1.0000 </r>
       <r>    2.3818    1.0000 </r>
       <r>    3.0045    1.0000 </r>
       <r>    3.4026    1.0000 </r>
       <r>    3.8157    1.0000 </r>
       <r>    3.8598    1.0000 </r>
       <r>    4.1541    1.0000 </r>
       <r>    4.5787    1.0000 </r>
       <r>    7.8549    0.0000 </r>
       <r>    8.1588    0.0000 </r>
       <r>    8.2745    0.0000 </r>
       <r>    8.4684    0.0000 </r>
       <r>    8.9128    0.0000 </r>
       <r>    8.9527    0.0000 </r>
       <r>    8.9791    0.0000 </r>
       <r>    9.7420    0.0000 </r>
       <r>    9.7640    0.0000 </r>
      </set>
      <set comment="kpoint 46">
       <r>   -4.4213    1.0000 </r>
       <r>   -4.1080    1.0000 </r>
       <r>   -4.1080    1.0000 </r>
       <r>   -3.8352    1.0000 </r>
       <r>   -0.6990    1.0000 </r>
       <r>   -0.3901    1.0000 </r>
       <r>   -0.3901    1.0000 </r>
       <r>   -0.0251    1.0000 </r>
       <r>    2.4252    1.0000 </r>
       <r>    2.7124    1.0000 </r>
       <r>    2.7124    1.0000 </r>
       <r>    3.0547    1.0000 </r>
       <r>    4.1513    1.0000 </r>
       <r>    4.2426    1.0000 </r>
       <r>    4.2426    1.0000 </r>
       <r>    4.5312    1.0000 </r>
       <r>    7.8812    0.0000 </r>
       <r>    8.0995    0.0000 </r>
       <r>    8.1846    0.0000 </r>
       <r>    8.1846    0.0000 </r>
       <r>    9.1696    0.0000 </r>
       <r>    9.1696    0.0000 </r>
       <r>    9.4166    0.0000 </r>
       <r>    9.5044    0.0000 </r>
       <r>    9.8774    0.0000 </r>
      </set>
      <set comment="kpoint 47">
       <r>   -5.2721    1.0000 </r>
       <r>   -3.6093    1.0000 </r>
       <r>   -3.6093    1.0000 </r>
       <r>   -3.6093    1.0000 </r>
       <r>   -0.7396    1.0000 </r>
[...]
       <r>   -1.0082    1.0000 </r>
       <r>   -0.1003    1.0000 </r>
       <r>    3.2328    1.0000 </r>
       <r>    3.2328    1.0000 </r>
       <r>    3.2328    1.0000 </r>
       <r>    4.0267    1.0000 </r>
       <r>    4.0267    1.0000 </r>
       <r>    4.0267    1.0000 </r>
       <r>    4.5667    1.0000 </r>
       <r>    4.5667    1.0000 </r>
       <r>    7.2320    0.0000 </r>
       <r>    7.7659    0.0000 </r>
       <r>    7.7659    0.0000 </r>
       <r>    7.7659    0.0000 </r>
       <r>    9.0821    0.0000 </r>
       <r>    9.0821    0.0000 </r>
       <r>    9.2314    0.0000 </r>
       <r>    9.2314    0.0000 </r>
       <r>    9.2314    0.0000 </r>
      </set>
      <set comment="kpoint 54">
       <r>   -4.3789    1.0000 </r>
       <r>   -4.1021    1.0000 </r>
       <r>   -3.7689    1.0000 </r>
       <r>   -3.7689    1.0000 </r>
       <r>   -1.1615    1.0000 </r>
       <r>   -1.1615    1.0000 </r>
       <r>   -0.7983    1.0000 </r>
       <r>   -0.4898    1.0000 </r>
       <r>    3.3718    1.0000 </r>
       <r>    3.3718    1.0000 </r>
       <r>    3.8756    1.0000 </r>
       <r>    4.1279    1.0000 </r>
       <r>    4.1279    1.0000 </r>
       <r>    4.2007    1.0000 </r>
       <r>    4.3864    1.0000 </r>
       <r>    4.3881    1.0000 </r>
       <r>    7.3692    0.0000 </r>
       <r>    7.6856    0.0000 </r>
       <r>    7.8918    0.0000 </r>
       <r>    7.8918    0.0000 </r>
       <r>    8.8644    0.0000 </r>
       <r>    8.8644    0.0000 </r>
       <r>    8.8847    0.0000 </r>
       <r>    8.9240    0.0000 </r>
       <r>    9.2211    0.0000 </r>
      </set>
      <set comment="kpoint 55">
       <r>   -4.1729    1.0000 </r>
       <r>   -3.9595    1.0000 </r>
       <r>   -3.9595    1.0000 </r>
       <r>   -3.8400    1.0000 </r>
       <r>   -1.1903    1.0000 </r>
       <r>   -1.0614    1.0000 </r>
       <r>   -1.0614    1.0000 </r>
       <r>   -0.8284    1.0000 </r>
       <r>    3.7014    1.0000 </r>
       <r>    3.8842    1.0000 </r>
       <r>    3.8842    1.0000 </r>
       <r>    4.2026    1.0000 </r>
       <r>    4.2997    1.0000 </r>
       <r>    4.3277    1.0000 </r>
       <r>    4.3277    1.0000 </r>
       <r>    4.4975    1.0000 </r>
       <r>    7.3207    0.0000 </r>
       <r>    7.5888    0.0000 </r>
       <r>    7.5888    0.0000 </r>
       <r>    7.6564    0.0000 </r>
       <r>    8.8705    0.0000 </r>
       <r>    8.8705    0.0000 </r>
       <r>    8.9429    0.0000 </r>
       <r>    9.0310    0.0000 </r>
       <r>    9.0354    0.0000 </r>
      </set>
      <set comment="kpoint 56">
       <r>   -4.0300    1.0000 </r>
       <r>   -3.9107    1.0000 </r>
       <r>   -3.9107    1.0000 </r>
       <r>   -3.9107    1.0000 </r>
       <r>   -1.2240    1.0000 </r>
       <r>   -1.2240    1.0000 </r>
       <r>   -1.2240    1.0000 </r>
       <r>   -1.0954    1.0000 </r>
       <r>    4.2344    1.0000 </r>
       <r>    4.2344    1.0000 </r>
       <r>    4.2344    1.0000 </r>
       <r>    4.3809    1.0000 </r>
       <r>    4.3809    1.0000 </r>
       <r>    4.3809    1.0000 </r>
       <r>    4.4498    1.0000 </r>
       <r>    4.4498    1.0000 </r>
       <r>    7.0969    0.0000 </r>
       <r>    7.2784    0.0000 </r>
       <r>    7.2784    0.0000 </r>
       <r>    7.2784    0.0000 </r>
       <r>    8.9188    0.0000 </r>
       <r>    8.9188    0.0000 </r>
       <r>    8.9188    0.0000 </r>
       <r>    8.9798    0.0000 </r>
       <r>    8.9799    0.0000 </r>
      </set>
     </set>
    </set>
   </array>
  </eigenvalues>
  <separator name="orbital magnetization" >
   <v name="MAGDIPOLOUT">      0.00000000      0.00000000      0.00000000</v>
  </separator>
  <dos>
   <i name="efermi">      5.91629046 </i>
   <total>
    <array>
     <dimension dim="1">gridpoints</dimension>
     <dimension dim="2">spin</dimension>
     <field>energy</field>
     <field>total</field>
     <field>integrated</field>
     <set>
      <set comment="spin 1">
       <r>    -7.1997     0.0000     0.0000 </r>
       <r>    -7.1361     0.0000     0.0000 </r>
       <r>    -7.0726     0.0000     0.0000 </r>
       <r>    -7.0091     0.0000     0.0000 </r>
       <r>    -6.9456     0.0000     0.0000 </r>
       <r>    -6.8821     0.0000     0.0000 </r>
       <r>    -6.8186     0.0000     0.0000 </r>
       <r>    -6.7551     0.0000     0.0000 </r>
       <r>    -6.6916     0.0000     0.0000 </r>
       <r>    -6.6281     0.0000     0.0000 </r>
       <r>    -6.5646     0.0000     0.0000 </r>
       <r>    -6.5011     0.0000     0.0000 </r>
       <r>    -6.4376     0.0000     0.0000 </r>
       <r>    -6.3741     0.0004     0.0000 </r>
       <r>    -6.3106     0.0053     0.0004 </r>
       <r>    -6.2471     0.0345     0.0026 </r>
       <r>    -6.1836     0.1241     0.0104 </r>
       <r>    -6.1200     0.2757     0.0279 </r>
       <r>    -6.0565     0.4458     0.0563 </r>
       <r>    -5.9930     0.5838     0.0933 </r>
       <r>    -5.9295     0.6713     0.1360 </r>
       <r>    -5.8660     0.7847     0.1858 </r>
       <r>    -5.8025     0.8934     0.2425 </r>
       <r>    -5.7390     0.9430     0.3024 </r>
       <r>    -5.6755     0.9684     0.3639 </r>
       <r>    -5.6120     1.0557     0.4310 </r>
       <r>    -5.5485     1.2267     0.5089 </r>
       <r>    -5.4850     1.2916     0.5909 </r>
       <r>    -5.4215     1.2024     0.6673 </r>
       <r>    -5.3580     1.1892     0.7428 </r>
       <r>    -5.2945     1.4202     0.8330 </r>
       <r>    -5.2310     1.6092     0.9352 </r>
       <r>    -5.1675     1.5793     1.0355 </r>
       <r>    -5.1039     1.4870     1.1299 </r>
       <r>    -5.0404     1.5512     1.2284 </r>
       <r>    -4.9769     1.6579     1.3337 </r>
       <r>    -4.9134     1.6714     1.4398 </r>
       <r>    -4.8499     1.7981     1.5540 </r>
       <r>    -4.7864     2.0544     1.6845 </r>
       <r>    -4.7229     2.1054     1.8182 </r>
       <r>    -4.6594     1.9194     1.9401 </r>
       <r>    -4.5959     1.7885     2.0537 </r>
       <r>    -4.5324     1.8561     2.1715 </r>
       <r>    -4.4689     2.1626     2.3089 </r>
       <r>    -4.4054     2.5636     2.4717 </r>
       <r>    -4.3419     2.6134     2.6376 </r>
       <r>    -4.2784     2.3411     2.7863 </r>
       <r>    -4.2149     2.3625     2.9364 </r>
       <r>    -4.1514     2.6169     3.1025 </r>
       <r>    -4.0879     2.6756     3.2725 </r>
       <r>    -4.0243     2.7515     3.4472 </r>
       <r>    -3.9608     3.0087     3.6383 </r>
       <r>    -3.8973     3.3182     3.8490 </r>
       <r>    -3.8338     3.7769     4.0889 </r>
       <r>    -3.7703     4.0685     4.3472 </r>
       <r>    -3.7068     3.5627     4.5735 </r>
       <r>    -3.6433     2.8227     4.7527 </r>
       <r>    -3.5798     2.9786     4.9419 </r>
       <r>    -3.5163     3.3782     5.1564 </r>
       <r>    -3.4528     2.9972     5.3468 </r>
       <r>    -3.3893     2.6410     5.5145 </r>
       <r>    -3.3258     2.7865     5.6915 </r>
       <r>    -3.2623     3.0442     5.8848 </r>
       <r>    -3.1988     3.3471     6.0973 </r>
       <r>    -3.1353     3.2680     6.3049 </r>
       <r>    -3.0718     2.6229     6.4715 </r>
       <r>    -3.0082     1.8922     6.5916 </r>
       <r>    -2.9447     1.5442     6.6897 </r>
       <r>    -2.8812     1.5477     6.7880 </r>
       <r>    -2.8177     1.8861     6.9078 </r>
       <r>    -2.7542     2.5659     7.0707 </r>
       <r>    -2.6907     2.9273     7.2566 </r>
       <r>    -2.6272     2.5827     7.4206 </r>
       <r>    -2.5637     1.9869     7.5468 </r>
       <r>    -2.5002     1.3643     7.6335 </r>
       <r>    -2.4367     0.8875     7.6898 </r>
       <r>    -2.3732     0.7057     7.7346 </r>
       <r>    -2.3097     0.7047     7.7794 </r>
       <r>    -2.2462     0.7798     7.8289 </r>
       <r>    -2.1827     0.8512     7.8830 </r>
       <r>    -2.1192     0.9339     7.9423 </r>
       <r>    -2.0557     1.0454     8.0087 </r>
       <r>    -1.9921     1.0542     8.0756 </r>
       <r>    -1.9286     0.8454     8.1293 </r>
       <r>    -1.8651     0.5848     8.1664 </r>
       <r>    -1.8016     0.4651     8.1960 </r>
       <r>    -1.7381     0.4519     8.2247 </r>
       <r>    -1.6746     0.5081     8.2569 </r>
       <r>    -1.6111     0.5916     8.2945 </r>
       <r>    -1.5476     0.8951     8.3513 </r>
       <r>    -1.4841     1.9955     8.4781 </r>
       <r>    -1.4206     3.4580     8.6977 </r>
       <r>    -1.3571     3.5810     8.9251 </r>
       <r>    -1.2936     2.6203     9.0915 </r>
       <r>    -1.2301     2.3795     9.2426 </r>
       <r>    -1.1666     3.3237     9.4537 </r>
       <r>    -1.1031     4.7256     9.7538 </r>
       <r>    -1.0396     5.4709    10.1012 </r>
       <r>    -0.9760     5.3535    10.4412 </r>
       <r>    -0.9125     4.6254    10.7350 </r>
       <r>    -0.8490     3.6660    10.9678 </r>
       <r>    -0.7855     3.7210    11.2041 </r>
       <r>    -0.7220     4.3233    11.4786 </r>
       <r>    -0.6585     3.6559    11.7108 </r>
       <r>    -0.5950     2.1251    11.8458 </r>
       <r>    -0.5315     1.5933    11.9469 </r>
       <r>    -0.4680     2.2364    12.0890 </r>
       <r>    -0.4045     2.8644    12.2709 </r>
       <r>    -0.3410     2.5793    12.4347 </r>
       <r>    -0.2775     1.8223    12.5504 </r>
       <r>    -0.2140     1.3521    12.6363 </r>
       <r>    -0.1505     1.3846    12.7242 </r>
       <r>    -0.0870     2.2290    12.8657 </r>
       <r>    -0.0235     3.0637    13.0603 </r>
       <r>     0.0401     2.6269    13.2271 </r>
       <r>     0.1036     1.5146    13.3233 </r>
       <r>     0.1671     0.8345    13.3763 </r>
       <r>     0.2306     0.7868    13.4263 </r>
       <r>     0.2941     1.2076    13.5030 </r>
       <r>     0.3576     1.8933    13.6232 </r>
       <r>     0.4211     2.1277    13.7583 </r>
       <r>     0.4846     1.5083    13.8541 </r>
       <r>     0.5481     0.9867    13.9168 </r>
       <r>     0.6116     0.8453    13.9705 </r>
       <r>     0.6751     0.7485    14.0180 </r>
       <r>     0.7386     0.9994    14.0815 </r>
       <r>     0.8021     1.7162    14.1904 </r>
       <r>     0.8656     2.0402    14.3200 </r>
       <r>     0.9291     1.4367    14.4112 </r>
       <r>     0.9926     0.7097    14.4563 </r>
       <r>     1.0562     0.4421    14.4844 </r>
       <r>     1.1197     0.4747    14.5145 </r>
       <r>     1.1832     0.6153    14.5536 </r>
       <r>     1.2467     0.9749    14.6155 </r>
       <r>     1.3102     1.7590    14.7272 </r>
       <r>     1.3737     2.4233    14.8811 </r>
       <r>     1.4372     2.7762    15.0574 </r>
       <r>     1.5007     3.4430    15.2761 </r>
       <r>     1.5642     4.1653    15.5406 </r>
       <r>     1.6277     4.3167    15.8148 </r>
       <r>     1.6912     4.1168    16.0762 </r>
       <r>     1.7547     4.3912    16.3551 </r>
       <r>     1.8182     5.1281    16.6807 </r>
       <r>     1.8817     5.2902    17.0167 </r>
       <r>     1.9452     4.6027    17.3090 </r>
       <r>     2.0087     3.8101    17.5509 </r>
       <r>     2.0723     3.3606    17.7644 </r>
       <r>     2.1358     3.5626    17.9906 </r>
       <r>     2.1993     4.2475    18.2604 </r>
       <r>     2.2628     4.6381    18.5549 </r>
       <r>     2.3263     4.6393    18.8495 </r>
       <r>     2.3898     4.7170    19.1491 </r>
       <r>     2.4533     4.7459    19.4505 </r>
       <r>     2.5168     4.6409    19.7452 </r>
       <r>     2.5803     4.5329    20.0331 </r>
       <r>     2.6438     4.3449    20.3090 </r>
       <r>     2.7073     4.6069    20.6016 </r>
       <r>     2.7708     5.4506    20.9477 </r>
       <r>     2.8343     6.1850    21.3405 </r>
       <r>     2.8978     6.4708    21.7514 </r>
       <r>     2.9613     6.2763    22.1500 </r>
       <r>     3.0248     6.0977    22.5373 </r>
       <r>     3.0884     6.0575    22.9220 </r>
       <r>     3.1519     5.7872    23.2895 </r>
       <r>     3.2154     5.3713    23.6306 </r>
       <r>     3.2789     5.2932    23.9667 </r>
       <r>     3.3424     5.9648    24.3456 </r>
       <r>     3.4059     6.6549    24.7682 </r>
       <r>     3.4694     6.1536    25.1590 </r>
       <r>     3.5329     4.9503    25.4733 </r>
       <r>     3.5964     4.4584    25.7565 </r>
       <r>     3.6599     5.0648    26.0781 </r>
       <r>     3.7234     5.7376    26.4425 </r>
       <r>     3.7869     5.8572    26.8145 </r>
       <r>     3.8504     5.4513    27.1607 </r>
       <r>     3.9139     4.9094    27.4724 </r>
       <r>     3.9774     4.6791    27.7696 </r>
       <r>     4.0409     4.4726    28.0536 </r>
       <r>     4.1045     4.6325    28.3478 </r>
       <r>     4.1680     5.3993    28.6907 </r>
       <r>     4.2315     5.6010    29.0464 </r>
       <r>     4.2950     4.7940    29.3509 </r>
       <r>     4.3585     3.9042    29.5988 </r>
       <r>     4.4220     3.6159    29.8284 </r>
       <r>     4.4855     3.9792    30.0811 </r>
       <r>     4.5490     4.3070    30.3547 </r>
       <r>     4.6125     3.6655    30.5874 </r>
       <r>     4.6760     2.6240    30.7541 </r>
       <r>     4.7395     2.1426    30.8901 </r>
       <r>     4.8030     2.0921    31.0230 </r>
       <r>     4.8665     2.0374    31.1524 </r>
       <r>     4.9300     2.0822    31.2846 </r>
       <r>     4.9935     2.0551    31.4151 </r>
       <r>     5.0570     1.6261    31.5184 </r>
       <r>     5.1205     1.2845    31.6000 </r>
       <r>     5.1841     1.2288    31.6780 </r>
       <r>     5.2476     1.0913    31.7473 </r>
       <r>     5.3111     0.9594    31.8082 </r>
       <r>     5.3746     0.9454    31.8683 </r>
       <r>     5.4381     0.8402    31.9216 </r>
       <r>     5.5016     0.5917    31.9592 </r>
       <r>     5.5651     0.3454    31.9812 </r>
       <r>     5.6286     0.1866    31.9930 </r>
       <r>     5.6921     0.0836    31.9983 </r>
       <r>     5.7556     0.0230    31.9998 </r>
       <r>     5.8191     0.0033    32.0000 </r>
       <r>     5.8826     0.0002    32.0000 </r>
       <r>     5.9461     0.0000    32.0000 </r>
       <r>     6.0096     0.0002    32.0000 </r>
       <r>     6.0731     0.0029    32.0002 </r>
       <r>     6.1366     0.0210    32.0015 </r>
       <r>     6.2002     0.0765    32.0064 </r>
       <r>     6.2637     0.1561    32.0163 </r>
       <r>     6.3272     0.2673    32.0333 </r>
       <r>     6.3907     0.5777    32.0700 </r>
       <r>     6.4542     1.0543    32.1369 </r>
       <r>     6.5177     1.2694    32.2175 </r>
       <r>     6.5812     1.2431    32.2965 </r>
       <r>     6.6447     1.3630    32.3830 </r>
       <r>     6.7082     1.5959    32.4844 </r>
       <r>     6.7717     1.7099    32.5930 </r>
       <r>     6.8352     1.6217    32.6960 </r>
       <r>     6.8987     1.7232    32.8054 </r>
       <r>     6.9622     2.3912    32.9573 </r>
       <r>     7.0257     2.9058    33.1418 </r>
       <r>     7.0892     2.8097    33.3202 </r>
       <r>     7.1527     2.5125    33.4798 </r>
       <r>     7.2163     2.5366    33.6409 </r>
       <r>     7.2798     3.2436    33.8469 </r>
       <r>     7.3433     3.8837    34.0935 </r>
       <r>     7.4068     3.8100    34.3355 </r>
       <r>     7.4703     3.5759    34.5626 </r>
       <r>     7.5338     3.7933    34.8035 </r>
       <r>     7.5973     4.2805    35.0753 </r>
       <r>     7.6608     4.8204    35.3814 </r>
       <r>     7.7243     5.6372    35.7394 </r>
       <r>     7.7878     6.3607    36.1434 </r>
       <r>     7.8513     6.6556    36.5660 </r>
       <r>     7.9148     6.9179    37.0054 </r>
       <r>     7.9783     6.8450    37.4401 </r>
       <r>     8.0418     5.9189    37.8159 </r>
       <r>     8.1053     5.1911    38.1456 </r>
       <r>     8.1688     5.4950    38.4946 </r>
       <r>     8.2324     5.8312    38.8649 </r>
       <r>     8.2959     5.1306    39.1907 </r>
       <r>     8.3594     4.2232    39.4589 </r>
       <r>     8.4229     4.2726    39.7303 </r>
       <r>     8.4864     4.7209    40.0301 </r>
       <r>     8.5499     4.8915    40.3407 </r>
       <r>     8.6134     4.9232    40.6534 </r>
       <r>     8.6769     4.8288    40.9600 </r>
       <r>     8.7404     4.5228    41.2473 </r>
       <r>     8.8039     5.0673    41.5691 </r>
       <r>     8.8674     7.1804    42.0251 </r>
       <r>     8.9309     9.0348    42.5988 </r>
       <r>     8.9944     8.6965    43.1511 </r>
       <r>     9.0579     7.1528    43.6053 </r>
       <r>     9.1214     6.1520    43.9960 </r>
       <r>     9.1849     5.9973    44.3769 </r>
       <r>     9.2485     6.4040    44.7836 </r>
       <r>     9.3120     6.9012    45.2219 </r>
       <r>     9.3755     7.0047    45.6667 </r>
       <r>     9.4390     6.5305    46.0814 </r>
       <r>     9.5025     5.6681    46.4414 </r>
       <r>     9.5660     5.1024    46.7654 </r>
       <r>     9.6295     4.9777    47.0815 </r>
       <r>     9.6930     4.6643    47.3778 </r>
       <r>     9.7565     4.1097    47.6387 </r>
       <r>     9.8200     3.5842    47.8664 </r>
       <r>     9.8835     3.4982    48.0885 </r>
       <r>     9.9470     3.8091    48.3304 </r>
       <r>    10.0105     3.9881    48.5837 </r>
       <r>    10.0740     3.7534    48.8221 </r>
       <r>    10.1375     3.4399    49.0405 </r>
       <r>    10.2010     3.5763    49.2676 </r>
       <r>    10.2646     3.5855    49.4953 </r>
       <r>    10.3281     2.7121    49.6676 </r>
       <r>    10.3916     1.6854    49.7746 </r>
       <r>    10.4551     1.0350    49.8403 </r>
       <r>    10.5186     0.6618    49.8824 </r>
       <r>    10.5821     0.5340    49.9163 </r>
       <r>    10.6456     0.4827    49.9469 </r>
       <r>    10.7091     0.3422    49.9686 </r>
       <r>    10.7726     0.2083    49.9819 </r>
       <r>    10.8361     0.1475    49.9912 </r>
       <r>    10.8996     0.0918    49.9971 </r>
       <r>    10.9631     0.0368    49.9994 </r>
       <r>    11.0266     0.0083    49.9999 </r>
       <r>    11.0901     0.0010    50.0000 </r>
       <r>    11.1536     0.0001    50.0000 </r>
       <r>    11.2171     0.0000    50.0000 </r>
       <r>    11.2807     0.0000    50.0000 </r>
       <r>    11.3442     0.0000    50.0000 </r>
       <r>    11.4077     0.0000    50.0000 </r>
       <r>    11.4712     0.0000    50.0000 </r>
       <r>    11.5347     0.0000    50.0000 </r>
       <r>    11.5982     0.0000    50.0000 </r>
       <r>    11.6617     0.0000    50.0000 </r>
       <r>    11.7252     0.0000    50.0000 </r>
       <r>    11.7887     0.0000    50.0000 </r>
       <r>    11.8522     0.0000    50.0000 </r>
      </set>
     </set>
    </array>
   </total>
  </dos>
 </calculation>
 <structure name="finalpos" >
  <crystal>
   <varray name="basis" >
    <v>       5.46915617       0.00000000      -0.00000000 </v>
    <v>      -0.00000000       5.46915617       0.00000000 </v>
    <v>      -0.00000000       0.00000000       5.46915617 </v>
   </varray>
   <i name="volume">    163.59159054 </i>
   <varray name="rec_basis" >
    <v>       0.18284356       0.00000000       0.00000000 </v>
    <v>      -0.00000000       0.18284356      -0.00000000 </v>
    <v>       0.00000000      -0.00000000       0.18284356 </v>
   </varray>
  </crystal>
  <varray name="positions" >
   <v>      -0.00000000       0.00000000      -0.00000000 </v>
   <v>      -0.00000000       0.50000000       0.50000000 </v>
   <v>       0.50000000       0.00000000       0.50000000 </v>
   <v>       0.50000000       0.50000000       0.00000000 </v>
   <v>       0.25000000       0.25000000       0.25000000 </v>
   <v>       0.75000000       0.75000000       0.25000000 </v>
   <v>       0.75000000       0.25000000       0.75000000 </v>
   <v>       0.25000000       0.75000000       0.75000000 </v>
  </varray>
 </structure>
</modeling>
