diamond Si                              
   5.43100000000000     
     1.020956    0.000000   -0.000000
    -0.000000    1.020956   -0.000000
    -0.000000    0.000000    1.020956
   Si
     8
Direct
  0.000000  0.000000  0.000000
  0.000000  0.500000  0.500000
  0.500000  0.000000  0.500000
  0.500000  0.500000  0.000000
  0.250000  0.250000  0.250000
  0.750000  0.750000  0.250000
  0.750000  0.250000  0.750000
  0.250000  0.750000  0.750000
 
   56   56   56
 -30.690     -26.116     -13.426      4.5966      24.227      41.814      54.646      61.443      62.394      58.825    
  52.656      45.727      38.907      32.567      26.925      22.074      18.016      14.694      12.019      9.8892    
  8.2076      6.8883      5.8602      5.0675      4.4679      4.0301      3.7319      3.5587      3.5018      3.5587    
  3.7319      4.0301      4.4679      5.0675      5.8602      6.8883      8.2076      9.8892      12.019      14.694    
  18.016      22.074      26.925      32.567      38.907      45.727      52.656      58.825      62.394      61.443    
  54.646      41.814      24.227      4.5966     -13.426     -26.116     -26.116     -21.700     -9.4584      7.9022    
  26.763      43.580      55.736      62.007      62.606      58.849      52.619      45.697      38.897      32.579    
  26.957      22.122      18.075      14.760      12.087      9.9575      8.2748      6.9536      5.9235      5.1289    
  4.5276      4.0886      3.7895      3.6157      3.5587      3.6157      3.7895      4.0886      4.5276      5.1289    
  5.9235      6.9536      8.2748      9.9575      12.087      14.760      18.075      22.122      26.957      32.579    
  38.897      45.697      52.619      58.849      62.606      62.007      55.736      43.580      26.763      7.9022    
 -9.4584     -21.700     -13.426     -9.4584      1.5186      17.014      33.708      48.368      58.635      63.452    
  63.093      58.838      52.471      45.585      38.850      32.604      27.047      22.262      18.250      14.954    
  12.291      10.163      8.4780      7.1517      6.1158      5.3157      4.7097      4.2668      3.9650      3.7895    
  3.7319      3.7895      3.9650      4.2668      4.7097      5.3157      6.1158      7.1517      8.4780      10.163    
  12.291      14.954      18.250      22.262      27.047      32.604      38.850      45.585      52.471      58.838    
  63.093      63.452      58.635      48.368      33.708      17.014      1.5186     -9.4584      4.5966      7.9022    
  17.014      29.766      43.289      54.814      62.367      65.133      63.466      58.588      52.120      45.330    
  38.727      32.616      27.176      22.482      18.533      15.276      12.632      10.510      8.8224      7.4893    
  6.4448      5.6360      5.0223      4.5731      4.2668      4.0886      4.0301      4.0886      4.2668      4.5731    
  5.0223      5.6360      6.4448      7.4893      8.8224      10.510      12.632      15.276      18.533      22.482    
  27.176      32.616      38.727      45.330      52.120      58.588      63.466      65.133      62.367      54.814    
  43.289      29.766      17.014      7.9022      24.227      26.763      33.708      43.289      53.173      61.145    
  65.680      66.241      63.260      57.869      51.449      44.854      38.475      32.578      27.319      22.765    
  18.914      15.720      13.110      11.003      9.3166      7.9775      6.9232      6.1037      5.4798      5.0223    
  4.7097      4.5276      4.4679      4.5276      4.7097      5.0223      5.4798      6.1037      6.9232      7.9775    
  9.3166      11.003      13.110      15.720      18.914      22.765      27.319      32.578      38.475      44.854    
  51.449      57.869      63.260      66.241      65.680      61.145      53.173      43.289      33.708      26.763    
  41.814      43.580      48.368      54.814      61.145      65.715      67.454      66.091      62.116      56.534    
  50.361      44.089      38.043      32.451      27.448      23.091      19.381      16.280      13.727      11.649    
  9.9728      8.6320      7.5696      6.7390      6.1037      5.6360      5.3157      5.1289      5.0675      5.1289    
  5.3157      5.6360      6.1037      6.7390      7.5696      8.6320      9.9728      11.649      13.727      16.280    
  19.381      23.091      27.448      32.451      38.043      44.089      50.361      56.534      62.116      66.091    
  67.454      65.715      61.145      54.814      48.368      43.580      54.646      55.736      58.635      62.367    
  65.680      67.454      67.026      64.347      59.921      54.557      48.802      42.993      37.397      32.207    
  27.536      23.440      19.922      16.954      14.487      12.459      10.808      9.4745      8.4091      7.5696    
  6.9232      6.4448      6.1158      5.9235      5.8602      5.9235      6.1158      6.4448      6.9232      7.5696    
  8.4091      9.4745      10.808      12.459      14.487      16.954      19.922      23.440      27.536      32.207    
  37.397      42.993      48.802      54.557      59.921      64.347      67.026      67.454      65.680      62.367    
  58.635      55.736      61.443      62.007      63.452      65.133      66.241      66.091      64.347      61.108    
  56.835      51.961      46.781      41.563      36.526      31.828      27.568      23.797      20.527      17.738    
  15.395      13.447      11.843      10.533      9.4745      8.6320      7.9775      7.4893      7.1517      6.9536    
  6.8883      6.9536      7.1517      7.4893      7.9775      8.6320      9.4745      10.533      11.843      13.447    
  15.395      17.738      20.527      23.797      27.568      31.828      36.526      41.563      46.781      51.961    
  56.835      61.108      64.347      66.091      66.241      65.133      63.452      62.007      62.394      62.606    
  63.093      63.466      63.260      62.116      59.921      56.835      53.074      48.841      44.358      39.835    
  35.443      31.315      27.536      24.157      21.193      18.637      16.463      14.633      13.106      11.843    
  10.808      9.9728      9.3166      8.8224      8.4780      8.2748      8.2076      8.2748      8.4780      8.8224    
  9.3166      9.9728      10.808      11.843      13.106      14.633      16.463      18.637      21.193      24.157    
  27.536      31.315      35.443      39.835      44.358      48.841      53.074      56.835      59.921      62.116    
  63.260      63.466      63.093      62.606      58.825      58.849      58.838      58.588      57.869      56.534    
  54.557      51.961      48.841      45.344      41.634      37.868      34.183      30.684      27.448      24.521    
  21.925      19.660      17.709      16.044      14.633      13.447      12.459      11.649      11.003      10.510    
  10.163      9.9575      9.8892      9.9575      10.163      10.510      11.003      11.649      12.459      13.447    
  14.633      16.044      17.709      19.660      21.925      24.521      27.448      30.684      34.183      37.868    
  41.634      45.344      48.841      51.961      54.557      56.534      57.869      58.588      58.838      58.849    
  52.656      52.619      52.471      52.120      51.449      50.361      48.802      46.781      44.358      41.634    
  38.723      35.742      32.794      29.964      27.319      24.902      22.735      20.823      19.155      17.709    
  16.463      15.395      14.487      13.727      13.110      12.632      12.291      12.087      12.019      12.087    
  12.291      12.632      13.110      13.727      14.487      15.395      16.463      17.709      19.155      20.823    
  22.735      24.902      27.319      29.964      32.794      35.742      38.723      41.634      44.358      46.781    
  48.802      50.361      51.449      52.120      52.471      52.619      45.727      45.697      45.585      45.330    
  44.854      44.089      42.993      41.563      39.835      37.868      35.742      33.537      31.332      29.193    
  27.176      25.318      23.639      22.144      20.823      19.660      18.637      17.738      16.954      16.280    
  15.720      15.276      14.954      14.760      14.694      14.760      14.954      15.276      15.720      16.280    
  16.954      17.738      18.637      19.660      20.823      22.144      23.639      25.318      27.176      29.193    
  31.332      33.537      35.742      37.868      39.835      41.563      42.993      44.089      44.854      45.330    
  45.585      45.697      38.907      38.897      38.850      38.727      38.475      38.043      37.397      36.526    
  35.443      34.183      32.794      31.332      29.853      28.411      27.047      25.790      24.654      23.639    
  22.735      21.925      21.193      20.527      19.922      19.381      18.914      18.533      18.250      18.075    
  18.016      18.075      18.250      18.533      18.914      19.381      19.922      20.527      21.193      21.925    
  22.735      23.639      24.654      25.790      27.047      28.411      29.853      31.332      32.794      34.183    
  35.443      36.526      37.397      38.043      38.475      38.727      38.850      38.897      32.567      32.579    
  32.604      32.616      32.578      32.451      32.207      31.828      31.315      30.684      29.964      29.193    
  28.411      27.655      26.957      26.333      25.790      25.318      24.902      24.521      24.157      23.797    
  23.440      23.091      22.765      22.482      22.262      22.122      22.074      22.122      22.262      22.482    
  22.765      23.091      23.440      23.797      24.157      24.521      24.902      25.318      25.790      26.333    
  26.957      27.655      28.411      29.193      29.964      30.684      31.315      31.828      32.207      32.451    
  32.578      32.616      32.604      32.579      26.925      26.957      27.047      27.176      27.319      27.448    
  27.536      27.568      27.536      27.448      27.319      27.176      27.047      26.957      26.925      26.957    
  27.047      27.176      27.319      27.448      27.536      27.568      27.536      27.448      27.319      27.176    
  27.047      26.957      26.925      26.957      27.047      27.176      27.319      27.448      27.536      27.568    
  27.536      27.448      27.319      27.176      27.047      26.957      26.925      26.957      27.047      27.176    
  27.319      27.448      27.536      27.568      27.536      27.448      27.319      27.176      27.047      26.957    
  22.074      22.122      22.262      22.482      22.765      23.091      23.440      23.797      24.157      24.521    
  24.902      25.318      25.790      26.333      26.957      27.655      28.411      29.193      29.964      30.684    
  31.315      31.828      32.207      32.451      32.578      32.616      32.604      32.579      32.567      32.579    
  32.604      32.616      32.578      32.451      32.207      31.828      31.315      30.684      29.964      29.193    
  28.411      27.655      26.957      26.333      25.790      25.318      24.902      24.521      24.157      23.797    
  23.440      23.091      22.765      22.482      22.262      22.122      18.016      18.075      18.250      18.533    
  18.914      19.381      19.922      20.527      21.193      21.925      22.735      23.639      24.654      25.790    
  27.047      28.411      29.853      31.332      32.794      34.183      35.443      36.526      37.397      38.043    
  38.475      38.727      38.850      38.897      38.907      38.897      38.850      38.727      38.475      38.043    
  37.397      36.526      35.443      34.183      32.794      31.332      29.853      28.411      27.047      25.790    
  24.654      23.639      22.735      21.925      21.193      20.527      19.922      19.381      18.914      18.533    
  18.250      18.075      14.694      14.760      14.954      15.276      15.720      16.280      16.954      17.738    
  18.637      19.660      20.823      22.144      23.639      25.318      27.176      29.193      31.332      33.537    
  35.742      37.868      39.835      41.563      42.993      44.089      44.854      45.330      45.585      45.697    
  45.727      45.697      45.585      45.330      44.854      44.089      42.993      41.563      39.835      37.868    
  35.742      33.537      31.332      29.193      27.176      25.318      23.639      22.144      20.823      19.660    
  18.637      17.738      16.954      16.280      15.720      15.276      14.954      14.760      12.019      12.087    
  12.291      12.632      13.110      13.727      14.487      15.395      16.463      17.709      19.155      20.823    
  22.735      24.902      27.319      29.964      32.794      35.742      38.723      41.634      44.358      46.781    
  48.802      50.361      51.449      52.120      52.471      52.619      52.656      52.619      52.471      52.120    
  51.449      50.361      48.802      46.781      44.358      41.634      38.723      35.742      32.794      29.964    
  27.319      24.902      22.735      20.823      19.155      17.709      16.463      15.395      14.487      13.727    
  13.110      12.632      12.291      12.087      9.8892      9.9575      10.163      10.510      11.003      11.649    
  12.459      13.447      14.633      16.044      17.709      19.660      21.925      24.521      27.448      30.684    
  34.183      37.868      41.634      45.344      48.841      51.961      54.557      56.534      57.869      58.588    
  58.838      58.849      58.825      58.849      58.838      58.588      57.869      56.534      54.557      51.961    
  48.841      45.344      41.634      37.868      34.183      30.684      27.448      24.521      21.925      19.660    
  17.709      16.044      14.633      13.447      12.459      11.649      11.003      10.510      10.163      9.9575    
  8.2076      8.2748      8.4780      8.8224      9.3166      9.9728      10.808      11.843      13.106      14.633    
  16.463      18.637      21.193      24.157      27.536      31.315      35.443      39.835      44.358      48.841    
  53.074      56.835      59.921      62.116      63.260      63.466      63.093      62.606      62.394      62.606    
  63.093      63.466      63.260      62.116      59.921      56.835      53.074      48.841      44.358      39.835    
  35.443      31.315      27.536      24.157      21.193      18.637      16.463      14.633      13.106      11.843    
  10.808      9.9728      9.3166      8.8224      8.4780      8.2748      6.8883      6.9536      7.1517      7.4893    
  7.9775      8.6320      9.4745      10.533      11.843      13.447      15.395      17.738      20.527      23.797    
  27.568      31.828      36.526      41.563      46.781      51.961      56.835      61.108      64.347      66.091    
  66.241      65.133      63.452      62.007      61.443      62.007      63.452      65.133      66.241      66.091    
  64.347      61.108      56.835      51.961      46.781      41.563      36.526      31.828      27.568      23.797    
  20.527      17.738      15.395      13.447      11.843      10.533      9.4745      8.6320      7.9775      7.4893    
  7.1517      6.9536      5.8602      5.9235      6.1158      6.4448      6.9232      7.5696      8.4091      9.4745    
  10.808      12.459      14.487      16.954      19.922      23.440      27.536      32.207      37.397      42.993    
  48.802      54.557      59.921      64.347      67.026      67.454      65.680      62.367      58.635      55.736    
  54.646      55.736      58.635      62.367      65.680      67.454      67.026      64.347      59.921      54.557    
  48.802      42.993      37.397      32.207      27.536      23.440      19.922      16.954      14.487      12.459    
  10.808      9.4745      8.4091      7.5696      6.9232      6.4448      6.1158      5.9235      5.0675      5.1289    
  5.3157      5.6360      6.1037      6.7390      7.5696      8.6320      9.9728      11.649      13.727      16.280    
  19.381      23.091      27.448      32.451      38.043      44.089      50.361      56.534      62.116      66.091    
  67.454      65.715      61.145      54.814      48.368      43.580      41.814      43.580      48.368      54.814    
  61.145      65.715      67.454      66.091      62.116      56.534      50.361      44.089      38.043      32.451    
  27.448      23.091      19.381      16.280      13.727      11.649      9.9728      8.6320      7.5696      6.7390    
  6.1037      5.6360      5.3157      5.1289      4.4679      4.5276      4.7097      5.0223      5.4798      6.1037    
  6.9232      7.9775      9.3166      11.003      13.110      15.720      18.914      22.765      27.319      32.578    
  38.475      44.854      51.449      57.869      63.260      66.241      65.680      61.145      53.173      43.289    
  33.708      26.763      24.227      26.763      33.708      43.289      53.173      61.145      65.680      66.241    
  63.260      57.869      51.449      44.854      38.475      32.578      27.319      22.765      18.914      15.720    
  13.110      11.003      9.3166      7.9775      6.9232      6.1037      5.4798      5.0223      4.7097      4.5276    
  4.0301      4.0886      4.2668      4.5731      5.0223      5.6360      6.4448      7.4893      8.8224      10.510    
  12.632      15.276      18.533      22.482      27.176      32.616      38.727      45.330      52.120      58.588    
  63.466      65.133      62.367      54.814      43.289      29.766      17.014      7.9022      4.5966      7.9022    
  17.014      29.766      43.289      54.814      62.367      65.133      63.466      58.588      52.120      45.330    
  38.727      32.616      27.176      22.482      18.533      15.276      12.632      10.510      8.8224      7.4893    
  6.4448      5.6360      5.0223      4.5731      4.2668      4.0886      3.7319      3.7895      3.9650      4.2668    
  4.7097      5.3157      6.1158      7.1517      8.4780      10.163      12.291      14.954      18.250      22.262    
  27.047      32.604      38.850      45.585      52.471      58.838      63.093      63.452      58.635      48.368    
  33.708      17.014      1.5186     -9.4584     -13.426     -9.4584      1.5186      17.014      33.708      48.368    
  58.635      63.452      63.093      58.838      52.471      45.585      38.850      32.604      27.047      22.262    
  18.250      14.954      12.291      10.163      8.4780      7.1517      6.1158      5.3157      4.7097      4.2668    
  3.9650      3.7895      3.5587      3.6157      3.7895      4.0886      4.5276      5.1289      5.9235      6.9536    
  8.2748      9.9575      12.087      14.760      18.075      22.122      26.957      32.579      38.897      45.697    
  52.619      58.849      62.606      62.007      55.736      43.580      26.763      7.9022     -9.4584     -21.700    
 -26.116     -21.700     -9.4584      7.9022      26.763      43.580      55.736      62.007      62.606      58.849    
  52.619      45.697      38.897      32.579      26.957      22.122      18.075      14.760      12.087      9.9575    
  8.2748      6.9536      5.9235      5.1289      4.5276      4.0886      3.7895      3.6157      3.5018      3.5587    
  3.7319      4.0301      4.4679      5.0675      5.8602      6.8883      8.2076      9.8892      12.019      14.694    
  18.016      22.074      26.925      32.567      38.907      45.727      52.656      58.825      62.394      61.443    
  54.646      41.814      24.227      4.5966     -13.426     -26.116     -30.690     -26.116     -13.426      4.5966    
  24.227      41.814      54.646      61.443      62.394      58.825      52.656      45.727      38.907      32.567    
  26.925      22.074      18.016      14.694      12.019      9.8892      8.2076      6.8883      5.8602      5.0675    
  4.4679      4.0301      3.7319      3.5587      3.5587      3.6157      3.7895      4.0886      4.5276      5.1289    
  5.9235      6.9536      8.2748      9.9575      12.087      14.760      18.075      22.122      26.957      32.579    
  38.897      45.697      52.619      58.849      62.606      62.007      55.736      43.580      26.763      7.9022    
 -9.4584     -21.700     -26.116     -21.700     -9.4584      7.9022      26.763      43.580      55.736      62.007    
  62.606      58.849      52.619      45.697      38.897      32.579      26.957      22.122      18.075      14.760    
  12.087      9.9575      8.2748      6.9536      5.9235      5.1289      4.5276      4.0886      3.7895      3.6157    
  3.7319      3.7895      3.9650      4.2668      4.7097      5.3157      6.1158      7.1517      8.4780      10.163    
  12.291      14.954      18.250      22.262      27.047      32.604      38.850      45.585      52.471      58.838    
  63.093      63.452      58.635      48.368      33.708      17.014      1.5186     -9.4584     -13.426     -9.4584    
  1.5186      17.014      33.708      48.368      58.635      63.452      63.093      58.838      52.471      45.585    
  38.850      32.604      27.047      22.262      18.250      14.954      12.291      10.163      8.4780      7.1517    
  6.1158      5.3157      4.7097      4.2668      3.9650      3.7895      4.0301      4.0886      4.2668      4.5731    
  5.0223      5.6360      6.4448      7.4893      8.8224      10.510      12.632      15.276      18.533      22.482    
  27.176      32.616      38.727      45.330      52.120      58.588      63.466      65.133      62.367      54.814    
  43.289      29.766      17.014      7.9022      4.5966      7.9022      17.014      29.766      43.289      54.814    
  62.367      65.133      63.466      58.588      52.120      45.330      38.727      32.616      27.176      22.482    
  18.533      15.276      12.632      10.510      8.8224      7.4893      6.4448      5.6360      5.0223      4.5731    
  4.2668      4.0886      4.4679      4.5276      4.7097      5.0223      5.4798      6.1037      6.9232      7.9775    
  9.3166      11.003      13.110      15.720      18.914      22.765      27.319      32.578      38.475      44.854    
  51.449      57.869      63.260      66.241      65.680      61.145      53.173      43.289      33.708      26.763    
  24.227      26.763      33.708      43.289      53.173      61.145      65.680      66.241      63.260      57.869    
  51.449      44.854      38.475      32.578      27.319      22.765      18.914      15.720      13.110      11.003    
  9.3166      7.9775      6.9232      6.1037      5.4798      5.0223      4.7097      4.5276      5.0675      5.1289    
  5.3157      5.6360      6.1037      6.7390      7.5696      8.6320      9.9728      11.649      13.727      16.280    
  19.381      23.091      27.448      32.451      38.043      44.089      50.361      56.534      62.116      66.091    
  67.454      65.715      61.145      54.814      48.368      43.580      41.814      43.580      48.368      54.814    
  61.145      65.715      67.454      66.091      62.116      56.534      50.361      44.089      38.043      32.451    
  27.448      23.091      19.381      16.280      13.727      11.649      9.9728      8.6320      7.5696      6.7390    
  6.1037      5.6360      5.3157      5.1289      5.8602      5.9235      6.1158      6.4448      6.9232      7.5696    
  8.4091      9.4745      10.808      12.459      14.487      16.954      19.922      23.440      27.536      32.207    
  37.397      42.993      48.802      54.557      59.921      64.347      67.026      67.454      65.680      62.367    
  58.635      55.736      54.646      55.736      58.635      62.367      65.680      67.454      67.026      64.347    
  59.921      54.557      48.802      42.993      37.397      32.207      27.536      23.440      19.922      16.954    
  14.487      12.459      10.808      9.4745      8.4091      7.5696      6.9232      6.4448      6.1158      5.9235    
  6.8883      6.9536      7.1517      7.4893      7.9775      8.6320      9.4745      10.533      11.843      13.447    
  15.395      17.738      20.527      23.797      27.568      31.828      36.526      41.563      46.781      51.961    
  56.835      61.108      64.347      66.091      66.241      65.133      63.452      62.007      61.443      62.007    
  63.452      65.133      66.241      66.091      64.347      61.108      56.835      51.961      46.781      41.563    
  36.526      31.828      27.568      23.797      20.527      17.738      15.395      13.447      11.843      10.533    
  9.4745      8.6320      7.9775      7.4893      7.1517      6.9536      8.2076      8.2748      8.4780      8.8224    
  9.3166      9.9728      10.808      11.843      13.106      14.633      16.463      18.637      21.193      24.157    
  27.536      31.315      35.443      39.835      44.358      48.841      53.074      56.835      59.921      62.116    
  63.260      63.466      63.093      62.606      62.394      62.606      63.093      63.466      63.260      62.116    
  59.921      56.835      53.074      48.841      44.358      39.835      35.443      31.315      27.536      24.157    
  21.193      18.637      16.463      14.633      13.106      11.843      10.808      9.9728      9.3166      8.8224    
  8.4780      8.2748      9.8892      9.9575      10.163      10.510      11.003      11.649      12.459      13.447    
  14.633      16.044      17.709      19.660      21.925      24.521      27.448      30.684      34.183      37.868    
  41.634      45.344      48.841      51.961      54.557      56.534      57.869      58.588      58.838      58.849    
  58.825      58.849      58.838      58.588      57.869      56.534      54.557      51.961      48.841      45.344    
  41.634      37.868      34.183      30.684      27.448      24.521      21.925      19.660      17.709      16.044    
  14.633      13.447      12.459      11.649      11.003      10.510      10.163      9.9575      12.019      12.087    
  12.291      12.632      13.110      13.727      14.487      15.395      16.463      17.709      19.155      20.823    
  22.735      24.902      27.319      29.964      32.794      35.742      38.723      41.634      44.358      46.781    
  48.802      50.361      51.449      52.120      52.471      52.619      52.656      52.619      52.471      52.120    
  51.449      50.361      48.802      46.781      44.358      41.634      38.723      35.742      32.794      29.964    
  27.319      24.902      22.735      20.823      19.155      17.709      16.463      15.395      14.487      13.727    
  13.110      12.632      12.291      12.087      14.694      14.760      14.954      15.276      15.720      16.280    
  16.954      17.738      18.637      19.660      20.823      22.144      23.639      25.318      27.176      29.193    
  31.332      33.537      35.742      37.868      39.835      41.563      42.993      44.089      44.854      45.330    
  45.585      45.697      45.727      45.697      45.585      45.330      44.854      44.089      42.993      41.563    
  39.835      37.868      35.742      33.537      31.332      29.193      27.176      25.318      23.639      22.144    
  20.823      19.660      18.637      17.738      16.954      16.280      15.720      15.276      14.954      14.760    
  18.016      18.075      18.250      18.533      18.914      19.381      19.922      20.527      21.193      21.925    
  22.735      23.639      24.654      25.790      27.047      28.411      29.853      31.332      32.794      34.183    
  35.443      36.526      37.397      38.043      38.475      38.727      38.850      38.897      38.907      38.897    
  38.850      38.727      38.475      38.043      37.397      36.526      35.443      34.183      32.794      31.332    
  29.853      28.411      27.047      25.790      24.654      23.639      22.735      21.925      21.193      20.527    
  19.922      19.381      18.914      18.533      18.250      18.075      22.074      22.122      22.262      22.482    
  22.765      23.091      23.440      23.797      24.157      24.521      24.902      25.318      25.790      26.333    
  26.957      27.655      28.411      29.193      29.964      30.684      31.315      31.828      32.207      32.451    
  32.578      32.616      32.604      32.579      32.567      32.579      32.604      32.616      32.578      32.451    
  32.207      31.828      31.315      30.684      29.964      29.193      28.411      27.655      26.957      26.333    
  25.790      25.318      24.902      24.521      24.157      23.797      23.440      23.091      22.765      22.482    
  22.262      22.122      26.925      26.957      27.047      27.176      27.319      27.448      27.536      27.568    
  27.536      27.448      27.319      27.176      27.047      26.957      26.925      26.957      27.047      27.176    
  27.319      27.448      27.536      27.568      27.536      27.448      27.319      27.176      27.047      26.957    
  26.925      26.957      27.047      27.176      27.319      27.448      27.536      27.568      27.536      27.448    
  27.319      27.176      27.047      26.957      26.925      26.957      27.047      27.176      27.319      27.448    
  27.536      27.568      27.536      27.448      27.319      27.176      27.047      26.957      32.567      32.579    
  32.604      32.616      32.578      32.451      32.207      31.828      31.315      30.684      29.964      29.193    
  28.411      27.655      26.957      26.333      25.790      25.318      24.902      24.521      24.157      23.797    
  23.440      23.091      22.765      22.482      22.262      22.122      22.074      22.122      22.262      22.482    