diamond Si                              
   5.43100000000000     
     1.006034    0.000000   -0.000000
    -0.000000    1.006034   -0.000000
    -0.000000    0.000000    1.006034
   Si
     8
Direct
  0.000000 -0.000000 -0.000000
  0.000000  0.500000  0.500000
  0.500000 -0.000000  0.500000
  0.500000  0.500000 -0.000000
  0.250000  0.250000  0.250000
  0.750000  0.750000  0.250000
  0.750000  0.250000  0.750000
  0.250000  0.750000  0.750000
 
   56   56   56
 -.31058723503E+02 -.26369975715E+02 -.13373284698E+02 0.50481690407E+01 0.25046524226E+02
 0.42863559508E+02 0.55733300400E+02 0.62384046200E+02 0.63067941108E+02 0.59201956606E+02
 0.52789700566E+02 0.45699013210E+02 0.38767958222E+02 0.32362113248E+02 0.26690403919E+02
 0.21835381649E+02 0.17788925709E+02 0.14485883188E+02 0.11831659642E+02 0.97226371386E+01
 0.80598136891E+01 0.67565973233E+01 0.57419276619E+01 0.49601445068E+01 0.43691074647E+01
 0.39378075197E+01 0.36442151227E+01 0.34736520265E+01 0.34177105759E+01 0.34736520265E+01
 0.36442151227E+01 0.39378075197E+01 0.43691074647E+01 0.49601445068E+01 0.57419276619E+01
 0.67565973233E+01 0.80598136891E+01 0.97226371386E+01 0.11831659642E+02 0.14485883188E+02
 0.17788925709E+02 0.21835381649E+02 0.26690403919E+02 0.32362113248E+02 0.38767958222E+02
 0.45699013210E+02 0.52789700566E+02 0.59201956606E+02 0.63067941108E+02 0.62384046200E+02
 0.55733300400E+02 0.42863559508E+02 0.25046524226E+02 0.50481690407E+01 -.13373284698E+02
 -.26369975715E+02 -.26369975715E+02 -.21846241374E+02 -.93153693952E+01 0.84193625969E+01
 0.27620229213E+02 0.44643356453E+02 0.56817854630E+02 0.62932791878E+02 0.63262137470E+02
 0.59210136953E+02 0.52743315299E+02 0.45663037761E+02 0.38753451087E+02 0.32371558054E+02
 0.26721282431E+02 0.21882800207E+02 0.17847490358E+02 0.14550819834E+02 0.11899308519E+02
 0.97905205402E+01 0.81264719984E+01 0.68213375672E+01 0.58045712252E+01 0.50208184911E+01
 0.44280968071E+01 0.39954657161E+01 0.37009191735E+01 0.35297839740E+01 0.34736520265E+01
 0.35297839740E+01 0.37009191735E+01 0.39954657161E+01 0.44280968071E+01 0.50208184911E+01
 0.58045712252E+01 0.68213375672E+01 0.81264719984E+01 0.97905205402E+01 0.11899308519E+02
 0.14550819834E+02 0.17847490358E+02 0.21882800207E+02 0.26721282431E+02 0.32371558054E+02
 0.38753451087E+02 0.45663037761E+02 0.52743315299E+02 0.59210136953E+02 0.63262137470E+02
 0.62932791878E+02 0.56817854630E+02 0.44643356453E+02 0.27620229213E+02 0.84193625969E+01
 -.93153693952E+01 -.21846241374E+02 -.13373284698E+02 -.93153693952E+01 0.19013597016E+01
 0.17701315548E+02 0.34660239098E+02 0.49459021366E+02 0.59695807844E+02 0.64330161191E+02
 0.63695092696E+02 0.59155323974E+02 0.52568744677E+02 0.45532887435E+02 0.38695481947E+02
 0.32390394715E+02 0.26807668109E+02 0.22021078751E+02 0.18020923640E+02 0.14744737275E+02
 0.12102468164E+02 0.99952565140E+01 0.83281873397E+01 0.70177541725E+01 0.59949840567E+01
 0.52054796867E+01 0.46077756342E+01 0.41711756810E+01 0.38737713854E+01 0.37009191735E+01
 0.36442151227E+01 0.37009191735E+01 0.38737713854E+01 0.41711756810E+01 0.46077756342E+01
 0.52054796867E+01 0.59949840567E+01 0.70177541725E+01 0.83281873397E+01 0.99952565140E+01
 0.12102468164E+02 0.14744737275E+02 0.18020923640E+02 0.22021078751E+02 0.26807668109E+02
 0.32390394715E+02 0.38695481947E+02 0.45532887435E+02 0.52568744677E+02 0.59155323974E+02
 0.63695092696E+02 0.64330161191E+02 0.59695807844E+02 0.49459021366E+02 0.34660239098E+02
 0.17701315548E+02 0.19013597016E+01 -.93153693952E+01 0.50481690407E+01 0.84193625969E+01
 0.17701315548E+02 0.30660738187E+02 0.44343476883E+02 0.55915377205E+02 0.63373147481E+02
 0.65924391719E+02 0.63981031730E+02 0.58838139486E+02 0.52176128978E+02 0.45249916624E+02
 0.38555374561E+02 0.32392711482E+02 0.26932143705E+02 0.22238898987E+02 0.18302663221E+02
 0.15064979877E+02 0.12441717121E+02 0.10340026759E+02 0.86701285976E+01 0.73524263471E+01
 0.63206567705E+01 0.55221416217E+01 0.49164149147E+01 0.44733114242E+01 0.41711756810E+01
 0.39954657161E+01 0.39378075197E+01 0.39954657161E+01 0.41711756810E+01 0.44733114242E+01
 0.49164149147E+01 0.55221416217E+01 0.63206567705E+01 0.73524263471E+01 0.86701285976E+01
 0.10340026759E+02 0.12441717121E+02 0.15064979877E+02 0.18302663221E+02 0.22238898987E+02
 0.26932143705E+02 0.32392711482E+02 0.38555374561E+02 0.45249916624E+02 0.52176128978E+02
 0.58838139486E+02 0.63981031730E+02 0.65924391719E+02 0.63373147481E+02 0.55915377205E+02
 0.44343476883E+02 0.30660738187E+02 0.17701315548E+02 0.84193625969E+01 0.25046524226E+02
 0.27620229213E+02 0.34660239098E+02 0.44343476883E+02 0.54277074038E+02 0.62201977609E+02
 0.66581488153E+02 0.66904726084E+02 0.63659233013E+02 0.58036817514E+02 0.51453767703E+02
 0.44739685307E+02 0.38282390030E+02 0.32343056027E+02 0.27069796531E+02 0.22519404193E+02
 0.18682603095E+02 0.15507342802E+02 0.12917971167E+02 0.10830019779E+02 0.91608508272E+01
 0.78363816716E+01 0.67942879869E+01 0.59845265639E+01 0.53682943405E+01 0.49164149147E+01
 0.46077756342E+01 0.44280968071E+01 0.43691074647E+01 0.44280968071E+01 0.46077756342E+01
 0.49164149147E+01 0.53682943405E+01 0.59845265639E+01 0.67942879869E+01 0.78363816716E+01
 0.91608508272E+01 0.10830019779E+02 0.12917971167E+02 0.15507342802E+02 0.18682603095E+02
 0.22519404193E+02 0.27069796531E+02 0.32343056027E+02 0.38282390030E+02 0.44739685307E+02
 0.51453767703E+02 0.58036817514E+02 0.63659233013E+02 0.66904726084E+02 0.66581488153E+02
 0.62201977609E+02 0.54277074038E+02 0.44343476883E+02 0.34660239098E+02 0.27620229213E+02
 0.42863559508E+02 0.44643356453E+02 0.49459021366E+02 0.55915377205E+02 0.62201977609E+02
 0.66650665557E+02 0.68194827390E+02 0.66593233801E+02 0.62383117774E+02 0.56617297274E+02
 0.50307467048E+02 0.43936708783E+02 0.37828805752E+02 0.32205367232E+02 0.27193349884E+02
 0.22843038673E+02 0.19148586232E+02 0.16066806900E+02 0.13532833562E+02 0.11472638028E+02
 0.98125160070E+01 0.84854274527E+01 0.74342771192E+01 0.66127325775E+01 0.59845265639E+01
 0.55221416217E+01 0.52054796867E+01 0.50208184911E+01 0.49601445068E+01 0.50208184911E+01
 0.52054796867E+01 0.55221416217E+01 0.59845265639E+01 0.66127325775E+01 0.74342771192E+01
 0.84854274527E+01 0.98125160070E+01 0.11472638028E+02 0.13532833562E+02 0.16066806900E+02
 0.19148586232E+02 0.22843038673E+02 0.27193349884E+02 0.32205367232E+02 0.37828805752E+02
 0.43936708783E+02 0.50307467048E+02 0.56617297274E+02 0.62383117774E+02 0.66593233801E+02
 0.68194827390E+02 0.66650665557E+02 0.62201977609E+02 0.55915377205E+02 0.49459021366E+02
 0.44643356453E+02 0.55733300400E+02 0.56817854630E+02 0.59695807844E+02 0.63373147481E+02
 0.66581488153E+02 0.68194827390E+02 0.67565163850E+02 0.64671819551E+02 0.60059241837E+02
 0.54555267579E+02 0.48690698397E+02 0.42804203678E+02 0.37162774182E+02 0.31951319988E+02
 0.27278585547E+02 0.23191075870E+02 0.19688694758E+02 0.16739026118E+02 0.14289590528E+02
 0.12278237607E+02 0.10641557688E+02 0.93208716184E+01 0.82655859270E+01 0.74342771192E+01
 0.67942879869E+01 0.63206567705E+01 0.59949840567E+01 0.58045712252E+01 0.57419276619E+01
 0.58045712252E+01 0.59949840567E+01 0.63206567705E+01 0.67942879869E+01 0.74342771192E+01
 0.82655859270E+01 0.93208716184E+01 0.10641557688E+02 0.12278237607E+02 0.14289590528E+02
 0.16739026118E+02 0.19688694758E+02 0.23191075870E+02 0.27278585547E+02 0.31951319988E+02
 0.37162774182E+02 0.42804203678E+02 0.48690698397E+02 0.54555267579E+02 0.60059241837E+02
 0.64671819551E+02 0.67565163850E+02 0.68194827390E+02 0.66581488153E+02 0.63373147481E+02
 0.59695807844E+02 0.56817854630E+02 0.62384046200E+02 0.62932791878E+02 0.64330161191E+02
 0.65924391719E+02 0.66904726084E+02 0.66593233801E+02 0.64671819551E+02 0.61268138195E+02
 0.56862924474E+02 0.51879510997E+02 0.46616369354E+02 0.41343185648E+02 0.36275493039E+02
 0.31566065010E+02 0.27308952253E+02 0.23549266853E+02 0.20294060333E+02 0.17522430305E+02
 0.15194768431E+02 0.13261325511E+02 0.11669705229E+02 0.10370538501E+02 0.93208716184E+01
 0.84854274527E+01 0.78363816716E+01 0.73524263471E+01 0.70177541725E+01 0.68213375672E+01
 0.67565973233E+01 0.68213375672E+01 0.70177541725E+01 0.73524263471E+01 0.78363816716E+01
 0.84854274527E+01 0.93208716184E+01 0.10370538501E+02 0.11669705229E+02 0.13261325511E+02
 0.15194768431E+02 0.17522430305E+02 0.20294060333E+02 0.23549266853E+02 0.27308952253E+02
 0.31566065010E+02 0.36275493039E+02 0.41343185648E+02 0.46616369354E+02 0.51879510997E+02
 0.56862924474E+02 0.61268138195E+02 0.64671819551E+02 0.66593233801E+02 0.66904726084E+02
 0.65924391719E+02 0.64330161191E+02 0.62932791878E+02 0.63067941108E+02 0.63262137470E+02
 0.63695092696E+02 0.63981031730E+02 0.63659233013E+02 0.62383117774E+02 0.60059241837E+02
 0.56862924474E+02 0.53004422633E+02 0.48691495701E+02 0.44150516565E+02 0.39590440453E+02
 0.35181956566E+02 0.31050573073E+02 0.27278585547E+02 0.23910879921E+02 0.20961525120E+02
 0.18420340398E+02 0.16259716131E+02 0.14441739114E+02 0.12924946204E+02 0.11669705229E+02
 0.10641557688E+02 0.98125160070E+01 0.91608508272E+01 0.86701285976E+01 0.83281873397E+01
 0.81264719984E+01 0.80598136891E+01 0.81264719984E+01 0.83281873397E+01 0.86701285976E+01
 0.91608508272E+01 0.98125160070E+01 0.10641557688E+02 0.11669705229E+02 0.12924946204E+02
 0.14441739114E+02 0.16259716131E+02 0.18420340398E+02 0.20961525120E+02 0.23910879921E+02
 0.27278585547E+02 0.31050573073E+02 0.35181956566E+02 0.39590440453E+02 0.44150516565E+02
 0.48691495701E+02 0.53004422633E+02 0.56862924474E+02 0.60059241837E+02 0.62383117774E+02
 0.63659233013E+02 0.63981031730E+02 0.63695092696E+02 0.63262137470E+02 0.59201956606E+02
 0.59210136953E+02 0.59155323974E+02 0.58838139486E+02 0.58036817514E+02 0.56617297274E+02
 0.54555267579E+02 0.51879510997E+02 0.48691495701E+02 0.45141122019E+02 0.41394601743E+02
 0.37608948983E+02 0.33916873622E+02 0.30420924934E+02 0.27193349884E+02 0.24278365535E+02
 0.21695244446E+02 0.19442183160E+02 0.17501363929E+02 0.15845043649E+02 0.14441739114E+02
 0.13261325511E+02 0.12278237607E+02 0.11472638028E+02 0.10830019779E+02 0.10340026759E+02
 0.99952565140E+01 0.97905205402E+01 0.97226371386E+01 0.97905205402E+01 0.99952565140E+01
 0.10340026759E+02 0.10830019779E+02 0.11472638028E+02 0.12278237607E+02 0.13261325511E+02
 0.14441739114E+02 0.15845043649E+02 0.17501363929E+02 0.19442183160E+02 0.21695244446E+02
 0.24278365535E+02 0.27193349884E+02 0.30420924934E+02 0.33916873622E+02 0.37608948983E+02
 0.41394601743E+02 0.45141122019E+02 0.48691495701E+02 0.51879510997E+02 0.54555267579E+02
 0.56617297274E+02 0.58036817514E+02 0.58838139486E+02 0.59155323974E+02 0.59210136953E+02
 0.52789700566E+02 0.52743315299E+02 0.52568744677E+02 0.52176128978E+02 0.51453767703E+02
 0.50307467048E+02 0.48690698397E+02 0.46616369354E+02 0.44150516565E+02 0.41394601743E+02
 0.38464947969E+02 0.35475750748E+02 0.32528260887E+02 0.29705422605E+02 0.27069796531E+02
 0.24663028135E+02 0.22506405662E+02 0.20602942090E+02 0.18941329935E+02 0.17501363929E+02
 0.16259716131E+02 0.15194768431E+02 0.14289590528E+02 0.13532833562E+02 0.12917971167E+02
 0.12441717121E+02 0.12102468164E+02 0.11899308519E+02 0.11831659642E+02 0.11899308519E+02
 0.12102468164E+02 0.12441717121E+02 0.12917971167E+02 0.13532833562E+02 0.14289590528E+02
 0.15194768431E+02 0.16259716131E+02 0.17501363929E+02 0.18941329935E+02 0.20602942090E+02
 0.22506405662E+02 0.24663028135E+02 0.27069796531E+02 0.29705422605E+02 0.32528260887E+02
 0.35475750748E+02 0.38464947969E+02 0.41394601743E+02 0.44150516565E+02 0.46616369354E+02
 0.48690698397E+02 0.50307467048E+02 0.51453767703E+02 0.52176128978E+02 0.52568744677E+02
 0.52743315299E+02 0.45699013210E+02 0.45663037761E+02 0.45532887435E+02 0.45249916624E+02
 0.44739685307E+02 0.43936708783E+02 0.42804203678E+02 0.41343185648E+02 0.39590440453E+02
 0.37608948983E+02 0.35475750748E+02 0.33271131555E+02 0.31070741498E+02 0.28940331813E+02
 0.26932143705E+02 0.25082468482E+02 0.23410692389E+02 0.21920432370E+02 0.20602942090E+02
 0.19442183160E+02 0.18420340398E+02 0.17522430305E+02 0.16739026118E+02 0.16066806900E+02
 0.15507342802E+02 0.15064979877E+02 0.14744737275E+02 0.14550819834E+02 0.14485883188E+02
 0.14550819834E+02 0.14744737275E+02 0.15064979877E+02 0.15507342802E+02 0.16066806900E+02
 0.16739026118E+02 0.17522430305E+02 0.18420340398E+02 0.19442183160E+02 0.20602942090E+02
 0.21920432370E+02 0.23410692389E+02 0.25082468482E+02 0.26932143705E+02 0.28940331813E+02
 0.31070741498E+02 0.33271131555E+02 0.35475750748E+02 0.37608948983E+02 0.39590440453E+02
 0.41343185648E+02 0.42804203678E+02 0.43936708783E+02 0.44739685307E+02 0.45249916624E+02
 0.45532887435E+02 0.45663037761E+02 0.38767958222E+02 0.38753451087E+02 0.38695481947E+02
 0.38555374561E+02 0.38282390030E+02 0.37828805752E+02 0.37162774182E+02 0.36275493039E+02
 0.35181956566E+02 0.33916873622E+02 0.32528260887E+02 0.31070741498E+02 0.29599472031E+02
 0.28164801286E+02 0.26807668109E+02 0.25556140548E+02 0.24423820378E+02 0.23410692389E+02
 0.22506405662E+02 0.21695244446E+02 0.20961525120E+02 0.20294060333E+02 0.19688694758E+02
 0.19148586232E+02 0.18682603095E+02 0.18302663221E+02 0.18020923640E+02 0.17847490358E+02
 0.17788925709E+02 0.17847490358E+02 0.18020923640E+02 0.18302663221E+02 0.18682603095E+02
 0.19148586232E+02 0.19688694758E+02 0.20294060333E+02 0.20961525120E+02 0.21695244446E+02
 0.22506405662E+02 0.23410692389E+02 0.24423820378E+02 0.25556140548E+02 0.26807668109E+02
 0.28164801286E+02 0.29599472031E+02 0.31070741498E+02 0.32528260887E+02 0.33916873622E+02
 0.35181956566E+02 0.36275493039E+02 0.37162774182E+02 0.37828805752E+02 0.38282390030E+02
 0.38555374561E+02 0.38695481947E+02 0.38753451087E+02 0.32362113248E+02 0.32371558054E+02
 0.32390394715E+02 0.32392711482E+02 0.32343056027E+02 0.32205367232E+02 0.31951319988E+02
 0.31566065010E+02 0.31050573073E+02 0.30420924934E+02 0.29705422605E+02 0.28940331813E+02
 0.28164801286E+02 0.27415444809E+02 0.26721282431E+02 0.26099962922E+02 0.25556140548E+02
 0.25082468482E+02 0.24663028135E+02 0.24278365535E+02 0.23910879921E+02 0.23549266853E+02
 0.23191075870E+02 0.22843038673E+02 0.22519404193E+02 0.22238898987E+02 0.22021078751E+02
 0.21882800207E+02 0.21835381649E+02 0.21882800207E+02 0.22021078751E+02 0.22238898987E+02
 0.22519404193E+02 0.22843038673E+02 0.23191075870E+02 0.23549266853E+02 0.23910879921E+02
 0.24278365535E+02 0.24663028135E+02 0.25082468482E+02 0.25556140548E+02 0.26099962922E+02
 0.26721282431E+02 0.27415444809E+02 0.28164801286E+02 0.28940331813E+02 0.29705422605E+02
 0.30420924934E+02 0.31050573073E+02 0.31566065010E+02 0.31951319988E+02 0.32205367232E+02
 0.32343056027E+02 0.32392711482E+02 0.32390394715E+02 0.32371558054E+02 0.26690403919E+02
 0.26721282431E+02 0.26807668109E+02 0.26932143705E+02 0.27069796531E+02 0.27193349884E+02
 0.27278585547E+02 0.27308952253E+02 0.27278585547E+02 0.27193349884E+02 0.27069796531E+02
 0.26932143705E+02 0.26807668109E+02 0.26721282431E+02 0.26690403919E+02 0.26721282431E+02
 0.26807668109E+02 0.26932143705E+02 0.27069796531E+02 0.27193349884E+02 0.27278585547E+02
 0.27308952253E+02 0.27278585547E+02 0.27193349884E+02 0.27069796531E+02 0.26932143705E+02
 0.26807668109E+02 0.26721282431E+02 0.26690403919E+02 0.26721282431E+02 0.26807668109E+02
 0.26932143705E+02 0.27069796531E+02 0.27193349884E+02 0.27278585547E+02 0.27308952253E+02
 0.27278585547E+02 0.27193349884E+02 0.27069796531E+02 0.26932143705E+02 0.26807668109E+02
 0.26721282431E+02 0.26690403919E+02 0.26721282431E+02 0.26807668109E+02 0.26932143705E+02
 0.27069796531E+02 0.27193349884E+02 0.27278585547E+02 0.27308952253E+02 0.27278585547E+02
 0.27193349884E+02 0.27069796531E+02 0.26932143705E+02 0.26807668109E+02 0.26721282431E+02
 0.21835381649E+02 0.21882800207E+02 0.22021078751E+02 0.22238898987E+02 0.22519404193E+02
 0.22843038673E+02 0.23191075870E+02 0.23549266853E+02 0.23910879921E+02 0.24278365535E+02
 0.24663028135E+02 0.25082468482E+02 0.25556140548E+02 0.26099962922E+02 0.26721282431E+02
 0.27415444809E+02 0.28164801286E+02 0.28940331813E+02 0.29705422605E+02 0.30420924934E+02
 0.31050573073E+02 0.31566065010E+02 0.31951319988E+02 0.32205367232E+02 0.32343056027E+02
 0.32392711482E+02 0.32390394715E+02 0.32371558054E+02 0.32362113248E+02 0.32371558054E+02
 0.32390394715E+02 0.32392711482E+02 0.32343056027E+02 0.32205367232E+02 0.31951319988E+02
 0.31566065010E+02 0.31050573073E+02 0.30420924934E+02 0.29705422605E+02 0.28940331813E+02
 0.28164801286E+02 0.27415444809E+02 0.26721282431E+02 0.26099962922E+02 0.25556140548E+02
 0.25082468482E+02 0.24663028135E+02 0.24278365535E+02 0.23910879921E+02 0.23549266853E+02
 0.23191075870E+02 0.22843038673E+02 0.22519404193E+02 0.22238898987E+02 0.22021078751E+02
 0.21882800207E+02 0.17788925709E+02 0.17847490358E+02 0.18020923640E+02 0.18302663221E+02
 0.18682603095E+02 0.19148586232E+02 0.19688694758E+02 0.20294060333E+02 0.20961525120E+02
 0.21695244446E+02 0.22506405662E+02 0.23410692389E+02 0.24423820378E+02 0.25556140548E+02
 0.26807668109E+02 0.28164801286E+02 0.29599472031E+02 0.31070741498E+02 0.32528260887E+02
 0.33916873622E+02 0.35181956566E+02 0.36275493039E+02 0.37162774182E+02 0.37828805752E+02
 0.38282390030E+02 0.38555374561E+02 0.38695481947E+02 0.38753451087E+02 0.38767958222E+02
 0.38753451087E+02 0.38695481947E+02 0.38555374561E+02 0.38282390030E+02 0.37828805752E+02
 0.37162774182E+02 0.36275493039E+02 0.35181956566E+02 0.33916873622E+02 0.32528260887E+02
 0.31070741498E+02 0.29599472031E+02 0.28164801286E+02 0.26807668109E+02 0.25556140548E+02
 0.24423820378E+02 0.23410692389E+02 0.22506405662E+02 0.21695244446E+02 0.20961525120E+02
 0.20294060333E+02 0.19688694758E+02 0.19148586232E+02 0.18682603095E+02 0.18302663221E+02
 0.18020923640E+02 0.17847490358E+02 0.14485883188E+02 0.14550819834E+02 0.14744737275E+02
 0.15064979877E+02 0.15507342802E+02 0.16066806900E+02 0.16739026118E+02 0.17522430305E+02
 0.18420340398E+02 0.19442183160E+02 0.20602942090E+02 0.21920432370E+02 0.23410692389E+02
 0.25082468482E+02 0.26932143705E+02 0.28940331813E+02 0.31070741498E+02 0.33271131555E+02
 0.35475750748E+02 0.37608948983E+02 0.39590440453E+02 0.41343185648E+02 0.42804203678E+02
 0.43936708783E+02 0.44739685307E+02 0.45249916624E+02 0.45532887435E+02 0.45663037761E+02
 0.45699013210E+02 0.45663037761E+02 0.45532887435E+02 0.45249916624E+02 0.44739685307E+02
 0.43936708783E+02 0.42804203678E+02 0.41343185648E+02 0.39590440453E+02 0.37608948983E+02
 0.35475750748E+02 0.33271131555E+02 0.31070741498E+02 0.28940331813E+02 0.26932143705E+02
 0.25082468482E+02 0.23410692389E+02 0.21920432370E+02 0.20602942090E+02 0.19442183160E+02
 0.18420340398E+02 0.17522430305E+02 0.16739026118E+02 0.16066806900E+02 0.15507342802E+02
 0.15064979877E+02 0.14744737275E+02 0.14550819834E+02 0.11831659642E+02 0.11899308519E+02
 0.12102468164E+02 0.12441717121E+02 0.12917971167E+02 0.13532833562E+02 0.14289590528E+02
 0.15194768431E+02 0.16259716131E+02 0.17501363929E+02 0.18941329935E+02 0.20602942090E+02
 0.22506405662E+02 0.24663028135E+02 0.27069796531E+02 0.29705422605E+02 0.32528260887E+02
 0.35475750748E+02 0.38464947969E+02 0.41394601743E+02 0.44150516565E+02 0.46616369354E+02
 0.48690698397E+02 0.50307467048E+02 0.51453767703E+02 0.52176128978E+02 0.52568744677E+02
 0.52743315299E+02 0.52789700566E+02 0.52743315299E+02 0.52568744677E+02 0.52176128978E+02
 0.51453767703E+02 0.50307467048E+02 0.48690698397E+02 0.46616369354E+02 0.44150516565E+02
 0.41394601743E+02 0.38464947969E+02 0.35475750748E+02 0.32528260887E+02 0.29705422605E+02
 0.27069796531E+02 0.24663028135E+02 0.22506405662E+02 0.20602942090E+02 0.18941329935E+02
 0.17501363929E+02 0.16259716131E+02 0.15194768431E+02 0.14289590528E+02 0.13532833562E+02
 0.12917971167E+02 0.12441717121E+02 0.12102468164E+02 0.11899308519E+02 0.97226371386E+01
 0.97905205402E+01 0.99952565140E+01 0.10340026759E+02 0.10830019779E+02 0.11472638028E+02
 0.12278237607E+02 0.13261325511E+02 0.14441739114E+02 0.15845043649E+02 0.17501363929E+02
 0.19442183160E+02 0.21695244446E+02 0.24278365535E+02 0.27193349884E+02 0.30420924934E+02
 0.33916873622E+02 0.37608948983E+02 0.41394601743E+02 0.45141122019E+02 0.48691495701E+02
 0.51879510997E+02 0.54555267579E+02 0.56617297274E+02 0.58036817514E+02 0.58838139486E+02
 0.59155323974E+02 0.59210136953E+02 0.59201956606E+02 0.59210136953E+02 0.59155323974E+02
 0.58838139486E+02 0.58036817514E+02 0.56617297274E+02 0.54555267579E+02 0.51879510997E+02
 0.48691495701E+02 0.45141122019E+02 0.41394601743E+02 0.37608948983E+02 0.33916873622E+02
 0.30420924934E+02 0.27193349884E+02 0.24278365535E+02 0.21695244446E+02 0.19442183160E+02
 0.17501363929E+02 0.15845043649E+02 0.14441739114E+02 0.13261325511E+02 0.12278237607E+02
 0.11472638028E+02 0.10830019779E+02 0.10340026759E+02 0.99952565140E+01 0.97905205402E+01
 0.80598136891E+01 0.81264719984E+01 0.83281873397E+01 0.86701285976E+01 0.91608508272E+01
 0.98125160070E+01 0.10641557688E+02 0.11669705229E+02 0.12924946204E+02 0.14441739114E+02
 0.16259716131E+02 0.18420340398E+02 0.20961525120E+02 0.23910879921E+02 0.27278585547E+02
 0.31050573073E+02 0.35181956566E+02 0.39590440453E+02 0.44150516565E+02 0.48691495701E+02
 0.53004422633E+02 0.56862924474E+02 0.60059241837E+02 0.62383117774E+02 0.63659233013E+02
 0.63981031730E+02 0.63695092696E+02 0.63262137470E+02 0.63067941108E+02 0.63262137470E+02
 0.63695092696E+02 0.63981031730E+02 0.63659233013E+02 0.62383117774E+02 0.60059241837E+02
 0.56862924474E+02 0.53004422633E+02 0.48691495701E+02 0.44150516565E+02 0.39590440453E+02
 0.35181956566E+02 0.31050573073E+02 0.27278585547E+02 0.23910879921E+02 0.20961525120E+02
 0.18420340398E+02 0.16259716131E+02 0.14441739114E+02 0.12924946204E+02 0.11669705229E+02
 0.10641557688E+02 0.98125160070E+01 0.91608508272E+01 0.86701285976E+01 0.83281873397E+01
 0.81264719984E+01 0.67565973233E+01 0.68213375672E+01 0.70177541725E+01 0.73524263471E+01
 0.78363816716E+01 0.84854274527E+01 0.93208716184E+01 0.10370538501E+02 0.11669705229E+02
 0.13261325511E+02 0.15194768431E+02 0.17522430305E+02 0.20294060333E+02 0.23549266853E+02
 0.27308952253E+02 0.31566065010E+02 0.36275493039E+02 0.41343185648E+02 0.46616369354E+02
 0.51879510997E+02 0.56862924474E+02 0.61268138195E+02 0.64671819551E+02 0.66593233801E+02
 0.66904726084E+02 0.65924391719E+02 0.64330161191E+02 0.62932791878E+02 0.62384046200E+02
 0.62932791878E+02 0.64330161191E+02 0.65924391719E+02 0.66904726084E+02 0.66593233801E+02
 0.64671819551E+02 0.61268138195E+02 0.56862924474E+02 0.51879510997E+02 0.46616369354E+02
 0.41343185648E+02 0.36275493039E+02 0.31566065010E+02 0.27308952253E+02 0.23549266853E+02
 0.20294060333E+02 0.17522430305E+02 0.15194768431E+02 0.13261325511E+02 0.11669705229E+02
 0.10370538501E+02 0.93208716184E+01 0.84854274527E+01 0.78363816716E+01 0.73524263471E+01
 0.70177541725E+01 0.68213375672E+01 0.57419276619E+01 0.58045712252E+01 0.59949840567E+01
 0.63206567705E+01 0.67942879869E+01 0.74342771192E+01 0.82655859270E+01 0.93208716184E+01
 0.10641557688E+02 0.12278237607E+02 0.14289590528E+02 0.16739026118E+02 0.19688694758E+02
 0.23191075870E+02 0.27278585547E+02 0.31951319988E+02 0.37162774182E+02 0.42804203678E+02
 0.48690698397E+02 0.54555267579E+02 0.60059241837E+02 0.64671819551E+02 0.67565163850E+02
 0.68194827390E+02 0.66581488153E+02 0.63373147481E+02 0.59695807844E+02 0.56817854630E+02
 0.55733300400E+02 0.56817854630E+02 0.59695807844E+02 0.63373147481E+02 0.66581488153E+02
 0.68194827390E+02 0.67565163850E+02 0.64671819551E+02 0.60059241837E+02 0.54555267579E+02
 0.48690698397E+02 0.42804203678E+02 0.37162774182E+02 0.31951319988E+02 0.27278585547E+02
 0.23191075870E+02 0.19688694758E+02 0.16739026118E+02 0.14289590528E+02 0.12278237607E+02
 0.10641557688E+02 0.93208716184E+01 0.82655859270E+01 0.74342771192E+01 0.67942879869E+01
 0.63206567705E+01 0.59949840567E+01 0.58045712252E+01 0.49601445068E+01 0.50208184911E+01
 0.52054796867E+01 0.55221416217E+01 0.59845265639E+01 0.66127325775E+01 0.74342771192E+01
 0.84854274527E+01 0.98125160070E+01 0.11472638028E+02 0.13532833562E+02 0.16066806900E+02
 0.19148586232E+02 0.22843038673E+02 0.27193349884E+02 0.32205367232E+02 0.37828805752E+02
 0.43936708783E+02 0.50307467048E+02 0.56617297274E+02 0.62383117774E+02 0.66593233801E+02
 0.68194827390E+02 0.66650665557E+02 0.62201977609E+02 0.55915377205E+02 0.49459021366E+02
 0.44643356453E+02 0.42863559508E+02 0.44643356453E+02 0.49459021366E+02 0.55915377205E+02
 0.62201977609E+02 0.66650665557E+02 0.68194827390E+02 0.66593233801E+02 0.62383117774E+02
 0.56617297274E+02 0.50307467048E+02 0.43936708783E+02 0.37828805752E+02 0.32205367232E+02
 0.27193349884E+02 0.22843038673E+02 0.19148586232E+02 0.16066806900E+02 0.13532833562E+02
 0.11472638028E+02 0.98125160070E+01 0.84854274527E+01 0.74342771192E+01 0.66127325775E+01
 0.59845265639E+01 0.55221416217E+01 0.52054796867E+01 0.50208184911E+01 0.43691074647E+01
 0.44280968071E+01 0.46077756342E+01 0.49164149147E+01 0.53682943405E+01 0.59845265639E+01
 0.67942879869E+01 0.78363816716E+01 0.91608508272E+01 0.10830019779E+02 0.12917971167E+02
 0.15507342802E+02 0.18682603095E+02 0.22519404193E+02 0.27069796531E+02 0.32343056027E+02
 0.38282390030E+02 0.44739685307E+02 0.51453767703E+02 0.58036817514E+02 0.63659233013E+02
 0.66904726084E+02 0.66581488153E+02 0.62201977609E+02 0.54277074038E+02 0.44343476883E+02
 0.34660239098E+02 0.27620229213E+02 0.25046524226E+02 0.27620229213E+02 0.34660239098E+02
 0.44343476883E+02 0.54277074038E+02 0.62201977609E+02 0.66581488153E+02 0.66904726084E+02
 0.63659233013E+02 0.58036817514E+02 0.51453767703E+02 0.44739685307E+02 0.38282390030E+02
 0.32343056027E+02 0.27069796531E+02 0.22519404193E+02 0.18682603095E+02 0.15507342802E+02
 0.12917971167E+02 0.10830019779E+02 0.91608508272E+01 0.78363816716E+01 0.67942879869E+01
 0.59845265639E+01 0.53682943405E+01 0.49164149147E+01 0.46077756342E+01 0.44280968071E+01
 0.39378075197E+01 0.39954657161E+01 0.41711756810E+01 0.44733114242E+01 0.49164149147E+01
 0.55221416217E+01 0.63206567705E+01 0.73524263471E+01 0.86701285976E+01 0.10340026759E+02
 0.12441717121E+02 0.15064979877E+02 0.18302663221E+02 0.22238898987E+02 0.26932143705E+02
 0.32392711482E+02 0.38555374561E+02 0.45249916624E+02 0.52176128978E+02 0.58838139486E+02
 0.63981031730E+02 0.65924391719E+02 0.63373147481E+02 0.55915377205E+02 0.44343476883E+02
 0.30660738187E+02 0.17701315548E+02 0.84193625969E+01 0.50481690407E+01 0.84193625969E+01
 0.17701315548E+02 0.30660738187E+02 0.44343476883E+02 0.55915377205E+02 0.63373147481E+02
 0.65924391719E+02 0.63981031730E+02 0.58838139486E+02 0.52176128978E+02 0.45249916624E+02
 0.38555374561E+02 0.32392711482E+02 0.26932143705E+02 0.22238898987E+02 0.18302663221E+02
 0.15064979877E+02 0.12441717121E+02 0.10340026759E+02 0.86701285976E+01 0.73524263471E+01
 0.63206567705E+01 0.55221416217E+01 0.49164149147E+01 0.44733114242E+01 0.41711756810E+01
 0.39954657161E+01 0.36442151227E+01 0.37009191735E+01 0.38737713854E+01 0.41711756810E+01
 0.46077756342E+01 0.52054796867E+01 0.59949840567E+01 0.70177541725E+01 0.83281873397E+01
 0.99952565140E+01 0.12102468164E+02 0.14744737275E+02 0.18020923640E+02 0.22021078751E+02
 0.26807668109E+02 0.32390394715E+02 0.38695481947E+02 0.45532887435E+02 0.52568744677E+02
 0.59155323974E+02 0.63695092696E+02 0.64330161191E+02 0.59695807844E+02 0.49459021366E+02
 0.34660239098E+02 0.17701315548E+02 0.19013597016E+01 -.93153693952E+01 -.13373284698E+02
 -.93153693952E+01 0.19013597016E+01 0.17701315548E+02 0.34660239098E+02 0.49459021366E+02
 0.59695807844E+02 0.64330161191E+02 0.63695092696E+02 0.59155323974E+02 0.52568744677E+02
 0.45532887435E+02 0.38695481947E+02 0.32390394715E+02 0.26807668109E+02 0.22021078751E+02
 0.18020923640E+02 0.14744737275E+02 0.12102468164E+02 0.99952565140E+01 0.83281873397E+01
 0.70177541725E+01 0.59949840567E+01 0.52054796867E+01 0.46077756342E+01 0.41711756810E+01
 0.38737713854E+01 0.37009191735E+01 0.34736520265E+01 0.35297839740E+01 0.37009191735E+01
 0.39954657161E+01 0.44280968071E+01 0.50208184911E+01 0.58045712252E+01 0.68213375672E+01
 0.81264719984E+01 0.97905205402E+01 0.11899308519E+02 0.14550819834E+02 0.17847490358E+02
 0.21882800207E+02 0.26721282431E+02 0.32371558054E+02 0.38753451087E+02 0.45663037761E+02
 0.52743315299E+02 0.59210136953E+02 0.63262137470E+02 0.62932791878E+02 0.56817854630E+02
 0.44643356453E+02 0.27620229213E+02 0.84193625969E+01 -.93153693952E+01 -.21846241374E+02
 -.26369975715E+02 -.21846241374E+02 -.93153693952E+01 0.84193625969E+01 0.27620229213E+02
 0.44643356453E+02 0.56817854630E+02 0.62932791878E+02 0.63262137470E+02 0.59210136953E+02
 0.52743315299E+02 0.45663037761E+02 0.38753451087E+02 0.32371558054E+02 0.26721282431E+02
 0.21882800207E+02 0.17847490358E+02 0.14550819834E+02 0.11899308519E+02 0.97905205402E+01
 0.81264719984E+01 0.68213375672E+01 0.58045712252E+01 0.50208184911E+01 0.44280968071E+01
 0.39954657161E+01 0.37009191735E+01 0.35297839740E+01 0.34177105759E+01 0.34736520265E+01
 0.36442151227E+01 0.39378075197E+01 0.43691074647E+01 0.49601445068E+01 0.57419276619E+01
 0.67565973233E+01 0.80598136891E+01 0.97226371386E+01 0.11831659642E+02 0.14485883188E+02
 0.17788925709E+02 0.21835381649E+02 0.26690403919E+02 0.32362113248E+02 0.38767958222E+02
 0.45699013210E+02 0.52789700566E+02 0.59201956606E+02 0.63067941108E+02 0.62384046200E+02
 0.55733300400E+02 0.42863559508E+02 0.25046524226E+02 0.50481690407E+01 -.13373284698E+02
 -.26369975715E+02 -.31058723503E+02 -.26369975715E+02 -.13373284698E+02 0.50481690407E+01
 0.25046524226E+02 0.42863559508E+02 0.55733300400E+02 0.62384046200E+02 0.63067941108E+02
 0.59201956606E+02 0.52789700566E+02 0.45699013210E+02 0.38767958222E+02 0.32362113248E+02
 0.26690403919E+02 0.21835381649E+02 0.17788925709E+02 0.14485883188E+02 0.11831659642E+02
 0.97226371386E+01 0.80598136891E+01 0.67565973233E+01 0.57419276619E+01 0.49601445068E+01