   8   8   0   0
  0.2002393E+02  0.5431000E-09  0.5431000E-09  0.5431000E-09  0.1000000E-14
  1.000000000000000E-004
  CAR 
 diamond Si                              
     11.91881880     -7.09973136  301      5.96016836      1.00000000
     -7.100  0.0000E+00  0.0000E+00
     -7.036  0.0000E+00  0.0000E+00
     -6.973  0.0000E+00  0.0000E+00
     -6.910  0.0000E+00  0.0000E+00
     -6.846  0.0000E+00  0.0000E+00
     -6.783  0.0000E+00  0.0000E+00
     -6.719  0.0000E+00  0.0000E+00
     -6.656  0.2378E-15  0.1508E-16
     -6.593  0.2058E-12  0.1306E-13
     -6.529  0.8116E-10  0.5158E-11
     -6.466  0.1458E-07  0.9294E-09
     -6.402  0.1198E-05  0.7685E-07
     -6.339  0.4523E-04  0.2944E-05
     -6.276  0.7896E-03  0.5300E-04
     -6.212  0.6416E-02  0.4597E-03
     -6.149  0.2442E-01  0.2008E-02
     -6.085  0.4398E-01  0.4795E-02
     -6.022  0.4117E-01  0.7405E-02
     -5.959  0.4358E-01  0.1017E-01
     -5.895  0.9376E-01  0.1611E-01
     -5.832  0.1358E+00  0.2472E-01
     -5.768  0.1028E+00  0.3124E-01
     -5.705  0.7647E-01  0.3608E-01
     -5.642  0.1171E+00  0.4350E-01
     -5.578  0.1329E+00  0.5193E-01
     -5.515  0.9169E-01  0.5774E-01
     -5.451  0.1036E+00  0.6431E-01
     -5.388  0.1712E+00  0.7516E-01
     -5.325  0.1673E+00  0.8577E-01
     -5.261  0.1326E+00  0.9418E-01
     -5.198  0.2045E+00  0.1071E+00
     -5.134  0.2731E+00  0.1245E+00
     -5.071  0.1991E+00  0.1371E+00
     -5.008  0.1289E+00  0.1453E+00
     -4.944  0.1396E+00  0.1541E+00
     -4.881  0.1201E+00  0.1617E+00
     -4.818  0.9679E-01  0.1679E+00
     -4.754  0.1743E+00  0.1789E+00
     -4.691  0.2702E+00  0.1960E+00
     -4.627  0.2670E+00  0.2130E+00
     -4.564  0.2886E+00  0.2313E+00
     -4.501  0.3779E+00  0.2552E+00
     -4.437  0.3431E+00  0.2770E+00
     -4.374  0.2162E+00  0.2907E+00
     -4.310  0.1749E+00  0.3018E+00
     -4.247  0.1745E+00  0.3128E+00
     -4.184  0.1850E+00  0.3245E+00
     -4.120  0.2805E+00  0.3423E+00
     -4.057  0.3914E+00  0.3672E+00
     -3.993  0.4128E+00  0.3933E+00
     -3.930  0.3501E+00  0.4155E+00
     -3.867  0.2850E+00  0.4336E+00
     -3.803  0.2660E+00  0.4504E+00
     -3.740  0.2523E+00  0.4664E+00
     -3.676  0.3306E+00  0.4874E+00
     -3.613  0.5227E+00  0.5205E+00
     -3.550  0.5728E+00  0.5568E+00
     -3.486  0.4465E+00  0.5852E+00
     -3.423  0.4051E+00  0.6108E+00
     -3.359  0.4890E+00  0.6418E+00
     -3.296  0.4535E+00  0.6706E+00
     -3.233  0.2459E+00  0.6862E+00
     -3.169  0.7354E-01  0.6908E+00
     -3.106  0.3559E-01  0.6931E+00
     -3.042  0.1155E+00  0.7004E+00
     -2.979  0.2448E+00  0.7159E+00
     -2.916  0.2473E+00  0.7316E+00
     -2.852  0.1312E+00  0.7399E+00
     -2.789  0.1100E+00  0.7469E+00
     -2.725  0.2489E+00  0.7627E+00
     -2.662  0.4122E+00  0.7888E+00
     -2.599  0.4791E+00  0.8192E+00
     -2.535  0.4628E+00  0.8485E+00
     -2.472  0.3703E+00  0.8720E+00
     -2.408  0.1991E+00  0.8846E+00
     -2.345  0.5842E-01  0.8883E+00
     -2.282  0.8442E-02  0.8889E+00
     -2.218  0.5772E-03  0.8889E+00
     -2.155  0.1835E-04  0.8889E+00
     -2.092  0.2689E-06  0.8889E+00
     -2.028  0.1805E-08  0.8889E+00
     -1.965  0.5925E-11  0.8889E+00
     -1.901  0.2016E-09  0.8889E+00
     -1.838  0.4610E-07  0.8889E+00
     -1.775  0.4822E-05  0.8889E+00
     -1.711  0.2319E-03  0.8889E+00
     -1.648  0.5162E-02  0.8892E+00
     -1.584  0.5356E-01  0.8926E+00
     -1.521  0.2620E+00  0.9092E+00
     -1.458  0.6153E+00  0.9482E+00
     -1.394  0.7212E+00  0.9940E+00
     -1.331  0.4585E+00  0.1023E+01
     -1.267  0.1959E+00  0.1035E+01
     -1.204  0.1645E+00  0.1046E+01
     -1.141  0.3716E+00  0.1069E+01
     -1.077  0.6150E+00  0.1108E+01
     -1.014  0.6342E+00  0.1149E+01
     -0.950  0.4037E+00  0.1174E+01
     -0.887  0.1553E+00  0.1184E+01
     -0.824  0.1060E+00  0.1191E+01
     -0.760  0.2989E+00  0.1210E+01
     -0.697  0.6024E+00  0.1248E+01
     -0.633  0.7117E+00  0.1293E+01
     -0.570  0.5049E+00  0.1325E+01
     -0.507  0.2149E+00  0.1339E+01
     -0.443  0.9648E-01  0.1345E+01
     -0.380  0.1734E+00  0.1356E+01
     -0.316  0.2694E+00  0.1373E+01
     -0.253  0.2128E+00  0.1386E+01
     -0.190  0.1270E+00  0.1394E+01
     -0.126  0.1655E+00  0.1405E+01
     -0.063  0.3054E+00  0.1424E+01
      0.001  0.4986E+00  0.1456E+01
      0.064  0.5314E+00  0.1490E+01
      0.127  0.2985E+00  0.1508E+01
      0.191  0.8211E-01  0.1514E+01
      0.254  0.1080E-01  0.1514E+01
      0.318  0.6704E-03  0.1514E+01
      0.381  0.2118E-04  0.1514E+01
      0.444  0.8582E-04  0.1514E+01
      0.508  0.1945E-02  0.1515E+01
      0.571  0.2061E-01  0.1516E+01
      0.634  0.1034E+00  0.1522E+01
      0.698  0.2581E+00  0.1539E+01
      0.761  0.3673E+00  0.1562E+01
      0.825  0.3740E+00  0.1586E+01
      0.888  0.2795E+00  0.1603E+01
      0.951  0.1228E+00  0.1611E+01
      1.015  0.2752E-01  0.1613E+01
      1.078  0.7905E-02  0.1614E+01
      1.142  0.3225E-01  0.1616E+01
      1.205  0.9585E-01  0.1622E+01
      1.268  0.1353E+00  0.1630E+01
      1.332  0.9921E-01  0.1636E+01
      1.395  0.9882E-01  0.1643E+01
      1.459  0.2479E+00  0.1658E+01
      1.522  0.4267E+00  0.1686E+01
      1.585  0.4819E+00  0.1716E+01
      1.649  0.5825E+00  0.1753E+01
      1.712  0.7352E+00  0.1800E+01
      1.776  0.6997E+00  0.1844E+01
      1.839  0.5023E+00  0.1876E+01
      1.902  0.3324E+00  0.1897E+01
      1.966  0.3011E+00  0.1916E+01
      2.029  0.2746E+00  0.1933E+01
      2.093  0.2300E+00  0.1948E+01
      2.156  0.4081E+00  0.1974E+01
      2.219  0.7354E+00  0.2020E+01
      2.283  0.8134E+00  0.2072E+01
      2.346  0.6099E+00  0.2111E+01
      2.410  0.4494E+00  0.2139E+01
      2.473  0.4086E+00  0.2165E+01
      2.536  0.3817E+00  0.2189E+01
      2.600  0.3256E+00  0.2210E+01
      2.663  0.3788E+00  0.2234E+01
      2.727  0.6588E+00  0.2276E+01
      2.790  0.8819E+00  0.2332E+01
      2.853  0.8017E+00  0.2382E+01
      2.917  0.5373E+00  0.2416E+01
      2.980  0.3972E+00  0.2442E+01
      3.043  0.5915E+00  0.2479E+01
      3.107  0.8855E+00  0.2535E+01
      3.170  0.8572E+00  0.2590E+01
      3.234  0.7101E+00  0.2635E+01
      3.297  0.6960E+00  0.2679E+01
      3.360  0.5647E+00  0.2715E+01
      3.424  0.4034E+00  0.2740E+01
      3.487  0.5471E+00  0.2775E+01
      3.551  0.7736E+00  0.2824E+01
      3.614  0.6365E+00  0.2864E+01
      3.677  0.3855E+00  0.2889E+01
      3.741  0.4320E+00  0.2916E+01
      3.804  0.6040E+00  0.2954E+01
      3.868  0.6331E+00  0.2994E+01
      3.931  0.5582E+00  0.3030E+01
      3.994  0.5539E+00  0.3065E+01
      4.058  0.6825E+00  0.3108E+01
      4.121  0.8029E+00  0.3159E+01
      4.185  0.7055E+00  0.3204E+01
      4.248  0.5001E+00  0.3236E+01
      4.311  0.4677E+00  0.3265E+01
      4.375  0.4755E+00  0.3295E+01
      4.438  0.3478E+00  0.3317E+01
      4.502  0.2042E+00  0.3330E+01
      4.565  0.1713E+00  0.3341E+01
      4.628  0.2871E+00  0.3359E+01
      4.692  0.4899E+00  0.3390E+01
      4.755  0.5195E+00  0.3423E+01
      4.819  0.3791E+00  0.3447E+01
      4.882  0.2984E+00  0.3466E+01
      4.945  0.2490E+00  0.3482E+01
      5.009  0.1839E+00  0.3494E+01
      5.072  0.1585E+00  0.3504E+01
      5.136  0.1165E+00  0.3511E+01
      5.199  0.6623E-01  0.3515E+01
      5.262  0.8771E-01  0.3521E+01
      5.326  0.1346E+00  0.3530E+01
      5.389  0.1134E+00  0.3537E+01
      5.453  0.7723E-01  0.3542E+01
      5.516  0.8836E-01  0.3547E+01
      5.579  0.8259E-01  0.3552E+01
      5.643  0.3892E-01  0.3555E+01
      5.706  0.8672E-02  0.3555E+01
      5.769  0.9038E-03  0.3556E+01
      5.833  0.4378E-04  0.3556E+01
      5.896  0.9790E-06  0.3556E+01
      5.960  0.1005E-07  0.3556E+01
      6.023  0.9457E-10  0.3556E+01
      6.086  0.1067E-07  0.3556E+01
      6.150  0.1097E-05  0.3556E+01
      6.213  0.5180E-04  0.3556E+01
      6.277  0.1131E-02  0.3556E+01
      6.340  0.1154E-01  0.3556E+01
      6.403  0.5637E-01  0.3560E+01
      6.467  0.1396E+00  0.3569E+01
      6.530  0.1998E+00  0.3581E+01
      6.594  0.1934E+00  0.3594E+01
      6.657  0.1241E+00  0.3602E+01
      6.720  0.4786E-01  0.3605E+01
      6.784  0.3636E-01  0.3607E+01
      6.847  0.1194E+00  0.3614E+01
      6.911  0.2531E+00  0.3631E+01
      6.974  0.3033E+00  0.3650E+01
      7.037  0.2583E+00  0.3666E+01
      7.101  0.2396E+00  0.3681E+01
      7.164  0.3518E+00  0.3704E+01
      7.228  0.4678E+00  0.3733E+01
      7.291  0.3863E+00  0.3758E+01
      7.354  0.3396E+00  0.3779E+01
      7.418  0.4226E+00  0.3806E+01
      7.481  0.3799E+00  0.3830E+01
      7.545  0.2926E+00  0.3849E+01
      7.608  0.3596E+00  0.3872E+01
      7.671  0.5299E+00  0.3905E+01
      7.735  0.7071E+00  0.3950E+01
      7.798  0.8935E+00  0.4007E+01
      7.862  0.9062E+00  0.4064E+01
      7.925  0.6736E+00  0.4107E+01
      7.988  0.5020E+00  0.4139E+01
      8.052  0.4283E+00  0.4166E+01
      8.115  0.3276E+00  0.4186E+01
      8.179  0.3690E+00  0.4210E+01
      8.242  0.6758E+00  0.4253E+01
      8.305  0.9126E+00  0.4311E+01
      8.369  0.8160E+00  0.4362E+01
      8.432  0.5895E+00  0.4400E+01
      8.495  0.4015E+00  0.4425E+01
      8.559  0.3289E+00  0.4446E+01
      8.622  0.5221E+00  0.4479E+01
      8.686  0.7702E+00  0.4528E+01
      8.749  0.7464E+00  0.4575E+01
      8.812  0.7115E+00  0.4620E+01
      8.876  0.8892E+00  0.4677E+01
      8.939  0.8993E+00  0.4734E+01
      9.003  0.6201E+00  0.4773E+01
      9.066  0.4621E+00  0.4802E+01
      9.129  0.5986E+00  0.4840E+01
      9.193  0.7801E+00  0.4890E+01
      9.256  0.8421E+00  0.4943E+01
      9.320  0.7818E+00  0.4993E+01
      9.383  0.7284E+00  0.5039E+01
      9.446  0.7114E+00  0.5084E+01
      9.510  0.6069E+00  0.5122E+01
      9.573  0.5416E+00  0.5157E+01
      9.637  0.5406E+00  0.5191E+01
      9.700  0.5178E+00  0.5224E+01
      9.763  0.5131E+00  0.5256E+01
      9.827  0.5464E+00  0.5291E+01
      9.890  0.5422E+00  0.5325E+01
      9.954  0.4651E+00  0.5355E+01
     10.017  0.3430E+00  0.5377E+01
     10.080  0.2965E+00  0.5395E+01
     10.144  0.4566E+00  0.5424E+01
     10.207  0.6288E+00  0.5464E+01
     10.271  0.5312E+00  0.5498E+01
     10.334  0.3054E+00  0.5517E+01
     10.397  0.1498E+00  0.5527E+01
     10.461  0.5347E-01  0.5530E+01
     10.524  0.1040E-01  0.5531E+01
     10.588  0.9797E-03  0.5531E+01
     10.651  0.7204E-04  0.5531E+01
     10.714  0.7164E-03  0.5531E+01
     10.778  0.8208E-02  0.5531E+01
     10.841  0.4396E-01  0.5534E+01
     10.904  0.1106E+00  0.5541E+01
     10.968  0.1310E+00  0.5550E+01
     11.031  0.7322E-01  0.5554E+01
     11.095  0.1925E-01  0.5555E+01
     11.158  0.2369E-02  0.5556E+01
     11.221  0.1357E-03  0.5556E+01
     11.285  0.3593E-05  0.5556E+01
     11.348  0.4374E-07  0.5556E+01
     11.412  0.2435E-09  0.5556E+01
     11.475  0.6174E-12  0.5556E+01
     11.538  0.6919E-15  0.5556E+01
     11.602  0.0000E+00  0.5556E+01
     11.665  0.0000E+00  0.5556E+01
     11.729  0.0000E+00  0.5556E+01
     11.792  0.0000E+00  0.5556E+01
     11.855  0.0000E+00  0.5556E+01
     11.919  0.0000E+00  0.5556E+01
