The current hostname is p0131.ten.osc.edu
The current working directory is /users/PAA0028/sjtuwjx1994
Switching to the working directory /users/PAA0028/sjtuwjx1994/repos/vasp_tutorials/lessons/lesson_02/kpoint_convergence/6
switching compiler chain
module load intel/19.0.5
module load intelmpi/2019.3
VASP_STD_BIN=/users/PAA0028/sjtuwjx1994/usr/local/vasp/vasp.5.4.1/bin/vasp_std
 running on   40 total cores
 distrk:  each k-point on   40 cores,    1 groups
 distr:  one band on    8 cores,    5 groups
 using from now: INCAR     
 vasp.5.4.1 05Feb16 (build Feb 24 2020 14:33:01) complex                        
  
 POSCAR found type information on POSCAR  Si
 POSCAR found :  1 types and       8 ions
 scaLAPACK will be used
 LDA part: xc-table for Pade appr. of Perdew
 POSCAR, INCAR and KPOINTS ok, starting setup
 FFT: planning ...
 WAVECAR not read
 entering main loop
       N       E                     dE             d eps       ncg     rms          rms(c)
DAV:   1     0.295181447260E+02    0.29518E+02   -0.77333E+03   500   0.556E+02
DAV:   2    -0.412955490355E+02   -0.70814E+02   -0.68321E+02   655   0.111E+02
DAV:   3    -0.439654441278E+02   -0.26699E+01   -0.26535E+01   640   0.208E+01    0.113E+01
DAV:   4    -0.435000053136E+02    0.46544E+00   -0.47856E-01   675   0.333E+00    0.664E+00
DAV:   5    -0.432718745721E+02    0.22813E+00   -0.49489E-01   585   0.280E+00    0.384E-01
DAV:   6    -0.432764308320E+02   -0.45563E-02   -0.19514E-02   640   0.624E-01    0.204E-01
DAV:   7    -0.432779993199E+02   -0.15685E-02   -0.28958E-03   560   0.228E-01    0.120E-01
DAV:   8    -0.432781175296E+02   -0.11821E-03   -0.16135E-04   505   0.637E-02    0.616E-02
DAV:   9    -0.432781697482E+02   -0.52219E-04   -0.70127E-05   425   0.428E-02
   1 F= -.43278170E+02 E0= -.43278170E+02  d E =-.432782E+02
 curvature:   0.00 expect dE= 0.000E+00 dE for cont linesearch  0.000E+00
 trial: gam= 0.00000 g(F)=  0.221E-59 g(S)=  0.109E+00 ort = 0.000E+00 (trialstep = 0.100E+01)
 search vector abs. value=  0.109E+00
 bond charge predicted
       N       E                     dE             d eps       ncg     rms          rms(c)
DAV:   1    -0.432915584788E+02   -0.13441E-01   -0.26465E+00   570   0.639E+00
DAV:   2    -0.432974046145E+02   -0.58461E-02   -0.58461E-02   630   0.103E+00
DAV:   3    -0.432974502766E+02   -0.45662E-04   -0.45662E-04   650   0.104E-01    0.184E+00
DAV:   4    -0.432395461214E+02    0.57904E-01   -0.27837E-02   515   0.595E-01    0.911E-01
DAV:   5    -0.432110610093E+02    0.28485E-01   -0.42152E-02   575   0.740E-01    0.305E-01
DAV:   6    -0.432108451620E+02    0.21585E-03   -0.20372E-03   605   0.202E-01    0.134E-01
DAV:   7    -0.432107844113E+02    0.60751E-04   -0.23334E-04   535   0.547E-02
   2 F= -.43210784E+02 E0= -.43210784E+02  d E =0.673853E-01
 trial-energy change:    0.067385  1 .order    0.063756   -0.109232    0.236744
 step:   0.3024(harm=  0.3157)  dis= 0.00000  next Energy=   -43.294588 (dE=-0.164E-01)
 bond charge predicted
       N       E                     dE             d eps       ncg     rms          rms(c)
DAV:   1    -0.433332473864E+02   -0.12240E+00   -0.13286E+00   565   0.464E+00
DAV:   2    -0.433368256379E+02   -0.35783E-02   -0.35782E-02   640   0.755E-01
DAV:   3    -0.433368449767E+02   -0.19339E-04   -0.19339E-04   585   0.713E-02    0.131E+00
DAV:   4    -0.433081526061E+02    0.28692E-01   -0.13734E-02   515   0.424E-01    0.635E-01
DAV:   5    -0.432942795180E+02    0.13873E-01   -0.20351E-02   580   0.520E-01    0.231E-01
DAV:   6    -0.432942651701E+02    0.14348E-04   -0.98558E-04   590   0.144E-01
   3 F= -.43294265E+02 E0= -.43294265E+02  d E =-.160954E-01
 curvature:  -0.16 expect dE=-0.438E-04 dE for cont linesearch -0.438E-04
 ZBRENT: interpolating
 opt :   0.2879  next Energy=   -43.294305 (dE=-0.161E-01)
 bond charge predicted
       N       E                     dE             d eps       ncg     rms          rms(c)
DAV:   1    -0.432941974757E+02    0.82042E-04   -0.32837E-04   535   0.776E-02
DAV:   2    -0.432941980633E+02   -0.58757E-06   -0.58741E-06   265   0.101E-02
DAV:   3    -0.432941981083E+02   -0.45020E-07   -0.44955E-07   265   0.340E-03    0.343E-02
DAV:   4    -0.432941903208E+02    0.77875E-05   -0.41760E-06   265   0.806E-03
   4 F= -.43294190E+02 E0= -.43294190E+02  d E =-.160206E-01
 curvature:  -0.14 expect dE=-0.487E-05 dE for cont linesearch -0.487E-05
 trial: gam=-0.01728 g(F)=  0.341E-59 g(S)=  0.338E-04 ort = 0.192E-02 (trialstep = 0.858E+00)
 search vector abs. value=  0.106E-07
 reached required accuracy - stopping structural energy minimisation
 writing wavefunctions

-----------------------
Resources requested:
nodes=1:ppn=40
mem=190440mb
-----------------------
Resources used:
cput=00:03:06
walltime=00:00:06
mem=0.001GB
vmem=0.000GB
-----------------------
Resource units charged (estimate):
0.006 RUs
-----------------------
