<?xml version="1.0" encoding="ISO-8859-1"?>
<modeling>
 <generator>
  <i name="program" type="string">vasp </i>
  <i name="version" type="string">5.4.1  </i>
  <i name="subversion" type="string">05Feb16 (build Feb 24 2020 14:33:01) complex                          parallel </i>
  <i name="platform" type="string">IFC91_ompi </i>
  <i name="date" type="string">2020 02 27 </i>
  <i name="time" type="string">21:44:45 </i>
 </generator>
 <incar>
  <i type="string" name="SYSTEM"> diamond Si</i>
  <i type="int" name="ISTART">     0</i>
  <i type="string" name="PREC">accurate</i>
  <i type="int" name="NSIM">     4</i>
  <i type="int" name="ICHARG">     2</i>
  <i type="int" name="NELM">    60</i>
  <i type="int" name="NELMDL">     3</i>
  <i type="int" name="NELMIN">     0</i>
  <i type="int" name="IBRION">     2</i>
  <i name="EDIFF">      0.00010000</i>
  <i name="EDIFFG">     -0.01000000</i>
  <i type="int" name="NSW">     9</i>
  <i type="int" name="ISIF">     3</i>
  <i name="ENCUT">    240.00000000</i>
  <i name="POTIM">      1.00000000</i>
  <i type="logical" name="LPLANE"> F  </i>
  <i type="int" name="ISMEAR">     0</i>
  <i name="SIGMA">      0.10000000</i>
  <v type="int" name="KPOINT_BSE">    -1     0     0     0</v>
  <i type="int" name="NELM">    60</i>
 </incar>
 <kpoints>
  <generation param="Monkhorst-Pack">
   <v type="int" name="divisions">       6        6        6 </v>
   <v name="usershift">      0.00000000       0.00000000       0.00000000 </v>
   <v name="genvec1">      0.16666667       0.00000000       0.00000000 </v>
   <v name="genvec2">      0.00000000       0.16666667       0.00000000 </v>
   <v name="genvec3">      0.00000000       0.00000000       0.16666667 </v>
   <v name="shift">      0.50000000       0.50000000       0.50000000 </v>
  </generation>
  <varray name="kpointlist" >
   <v>       0.08333333       0.08333333       0.08333333 </v>
   <v>       0.25000000       0.08333333       0.08333333 </v>
   <v>       0.41666667       0.08333333       0.08333333 </v>
   <v>       0.25000000       0.25000000       0.08333333 </v>
   <v>       0.41666667       0.25000000       0.08333333 </v>
   <v>       0.41666667       0.41666667       0.08333333 </v>
   <v>       0.25000000       0.25000000       0.25000000 </v>
   <v>       0.41666667       0.25000000       0.25000000 </v>
   <v>       0.41666667       0.41666667       0.25000000 </v>
   <v>       0.41666667       0.41666667       0.41666667 </v>
  </varray>
  <varray name="weights" >
   <v>       0.03703704 </v>
   <v>       0.11111111 </v>
   <v>       0.11111111 </v>
   <v>       0.11111111 </v>
   <v>       0.22222222 </v>
   <v>       0.11111111 </v>
   <v>       0.03703704 </v>
   <v>       0.11111111 </v>
   <v>       0.11111111 </v>
   <v>       0.03703704 </v>
  </varray>
 </kpoints>
 <parameters>
  <separator name="general" >
   <i type="string" name="SYSTEM">diamond Si</i>
   <i type="logical" name="LCOMPAT"> F  </i>
  </separator>
  <separator name="electronic" >
   <i type="string" name="PREC">accura</i>
   <i name="ENMAX">    240.00000000</i>
   <i name="ENAUG">    322.06900000</i>
   <i name="EDIFF">      0.00010000</i>
   <i type="int" name="IALGO">    38</i>
   <i type="int" name="IWAVPR">    11</i>
   <i type="int" name="NBANDS">    25</i>
   <i name="NELECT">     32.00000000</i>
   <i type="int" name="TURBO">     0</i>
   <i type="int" name="IRESTART">     0</i>
   <i type="int" name="NREBOOT">     0</i>
   <i type="int" name="NMIN">     0</i>
   <i name="EREF">      0.00000000</i>
   <separator name="electronic smearing" >
    <i type="int" name="ISMEAR">     0</i>
    <i name="SIGMA">      0.10000000</i>
    <i name="KSPACING">      0.50000000</i>
    <i type="logical" name="KGAMMA"> T  </i>
   </separator>
   <separator name="electronic projectors" >
    <i type="logical" name="LREAL"> F  </i>
    <v name="ROPT">      0.00000000</v>
    <i type="int" name="LMAXPAW">  -100</i>
    <i type="int" name="LMAXMIX">     2</i>
    <i type="logical" name="NLSPLINE"> F  </i>
   </separator>
   <separator name="electronic startup" >
    <i type="int" name="ISTART">     0</i>
    <i type="int" name="ICHARG">     2</i>
    <i type="int" name="INIWAV">     1</i>
   </separator>
   <separator name="electronic spin" >
    <i type="int" name="ISPIN">     1</i>
    <i type="logical" name="LNONCOLLINEAR"> F  </i>
    <v name="MAGMOM">      1.00000000      1.00000000      1.00000000      1.00000000      1.00000000      1.00000000      1.00000000      1.00000000</v>
    <i name="NUPDOWN">     -1.00000000</i>
    <i type="logical" name="LSORBIT"> F  </i>
    <v name="SAXIS">      0.00000000      0.00000000      1.00000000</v>
    <i type="logical" name="LSPIRAL"> F  </i>
    <v name="QSPIRAL">      0.00000000      0.00000000      0.00000000</v>
    <i type="logical" name="LZEROZ"> F  </i>
   </separator>
   <separator name="electronic exchange-correlation" >
    <i type="logical" name="LASPH"> F  </i>
    <i type="logical" name="LMETAGGA"> F  </i>
   </separator>
   <separator name="electronic convergence" >
    <i type="int" name="NELM">    60</i>
    <i type="int" name="NELMDL">     3</i>
    <i type="int" name="NELMIN">     0</i>
    <i name="ENINI">    240.00000000</i>
    <separator name="electronic convergence detail" >
     <i type="logical" name="LDIAG"> T  </i>
     <i type="logical" name="LSUBROT"> F  </i>
     <i name="WEIMIN">      0.00100000</i>
     <i name="EBREAK">      0.00000100</i>
     <i name="DEPER">      0.30000000</i>
     <i type="int" name="NRMM">     4</i>
     <i name="TIME">      0.40000000</i>
    </separator>
   </separator>
   <separator name="electronic mixer" >
    <i name="AMIX">      0.40000000</i>
    <i name="BMIX">      1.00000000</i>
    <i name="AMIN">      0.10000000</i>
    <i name="AMIX_MAG">      1.60000000</i>
    <i name="BMIX_MAG">      1.00000000</i>
    <separator name="electronic mixer details" >
     <i type="int" name="IMIX">     4</i>
     <i type="logical" name="MIXFIRST"> F  </i>
     <i type="int" name="MAXMIX">   -45</i>
     <i name="WC">    100.00000000</i>
     <i type="int" name="INIMIX">     1</i>
     <i type="int" name="MIXPRE">     1</i>
     <i type="int" name="MREMOVE">     5</i>
    </separator>
   </separator>
   <separator name="electronic dipolcorrection" >
    <i type="logical" name="LDIPOL"> F  </i>
    <i type="logical" name="LMONO"> F  </i>
    <i type="int" name="IDIPOL">     0</i>
    <i name="EPSILON">      1.00000000</i>
    <v name="DIPOL">   -100.00000000   -100.00000000   -100.00000000</v>
    <i name="EFIELD">      0.00000000</i>
   </separator>
  </separator>
  <separator name="grids" >
   <i type="int" name="NGX">    28</i>
   <i type="int" name="NGY">    28</i>
   <i type="int" name="NGZ">    28</i>
   <i type="int" name="NGXF">    56</i>
   <i type="int" name="NGYF">    56</i>
   <i type="int" name="NGZF">    56</i>
   <i type="logical" name="ADDGRID"> F  </i>
  </separator>
  <separator name="ionic" >
   <i type="int" name="NSW">     9</i>
   <i type="int" name="IBRION">     2</i>
   <i type="int" name="ISIF">     3</i>
   <i name="PSTRESS">      0.00000000</i>
   <i name="EDIFFG">     -0.01000000</i>
   <i type="int" name="NFREE">     1</i>
   <i name="POTIM">      1.00000000</i>
   <i name="SMASS">     -3.00000000</i>
   <i name="SCALEE">      1.00000000</i>
  </separator>
  <separator name="ionic md" >
   <i name="TEBEG">      0.00010000</i>
   <i name="TEEND">      0.00010000</i>
   <i type="int" name="NBLOCK">     1</i>
   <i type="int" name="KBLOCK">     9</i>
   <i type="int" name="NPACO">   256</i>
   <i name="APACO">     16.00000000</i>
  </separator>
  <separator name="symmetry" >
   <i type="int" name="ISYM">     2</i>
   <i name="SYMPREC">      0.00001000</i>
  </separator>
  <separator name="dos" >
   <i type="logical" name="LORBIT"> F  </i>
   <v name="RWIGS">     -1.00000000</v>
   <i type="int" name="NEDOS">   301</i>
   <i name="EMIN">     10.00000000</i>
   <i name="EMAX">    -10.00000000</i>
   <i name="EFERMI">      0.00000000</i>
  </separator>
  <separator name="writing" >
   <i type="int" name="NWRITE">     2</i>
   <i type="logical" name="LWAVE"> T  </i>
   <i type="logical" name="LCHARG"> T  </i>
   <i type="logical" name="LPARD"> F  </i>
   <i type="logical" name="LVTOT"> F  </i>
   <i type="logical" name="LVHAR"> F  </i>
   <i type="logical" name="LELF"> F  </i>
   <i type="logical" name="LOPTICS"> F  </i>
   <v name="STM">      0.00000000      0.00000000      0.00000000      0.00000000      0.00000000      0.00000000      0.00000000</v>
  </separator>
  <separator name="performance" >
   <i type="int" name="NPAR">     5</i>
   <i type="int" name="NSIM">     4</i>
   <i type="int" name="NBLK">    -1</i>
   <i type="logical" name="LPLANE"> F  </i>
   <i type="logical" name="LSCALAPACK"> T  </i>
   <i type="logical" name="LSCAAWARE"> F  </i>
   <i type="logical" name="LSCALU"> F  </i>
   <i type="logical" name="LASYNC"> F  </i>
   <i type="logical" name="LORBITALREAL"> F  </i>
  </separator>
  <separator name="miscellaneous" >
   <i type="int" name="IDIOT">     3</i>
   <i type="logical" name="LMUSIC"> F  </i>
   <v name="POMASS">     28.08500000</v>
   <v name="DARWINR">      0.00000000</v>
   <v name="DARWINV">      1.00000000</v>
   <i type="logical" name="LCORR"> T  </i>
  </separator>
  <i type="logical" name="GGA_COMPAT"> T  </i>
  <i type="logical" name="LBERRY"> F  </i>
  <i type="int" name="ICORELEVEL">     0</i>
  <i type="logical" name="LDAU"> F  </i>
  <i type="int" name="I_CONSTRAINED_M">     0</i>
  <separator name="electronic exchange-correlation" >
   <i type="string" name="GGA">--</i>
   <i type="int" name="VOSKOWN">     0</i>
   <i type="logical" name="LHFCALC"> F  </i>
   <i type="string" name="PRECFOCK"></i>
   <i type="logical" name="LSYMGRAD"> F  </i>
   <i type="logical" name="LHFONE"> F  </i>
   <i type="logical" name="LRHFCALC"> F  </i>
   <i type="logical" name="LTHOMAS"> F  </i>
   <i type="logical" name="LMODELHF"> F  </i>
   <i name="ENCUT4O">     -1.00000000</i>
   <i type="int" name="EXXOEP">     0</i>
   <i type="int" name="FOURORBIT">     0</i>
   <i name="AEXX">      0.00000000</i>
   <i name="HFALPHA">      0.00000000</i>
   <i name="MCALPHA">      0.00000000</i>
   <i name="ALDAX">      1.00000000</i>
   <i name="AGGAX">      1.00000000</i>
   <i name="ALDAC">      1.00000000</i>
   <i name="AGGAC">      1.00000000</i>
   <i type="int" name="NKREDX">     1</i>
   <i type="int" name="NKREDY">     1</i>
   <i type="int" name="NKREDZ">     1</i>
   <i type="logical" name="SHIFTRED"> F  </i>
   <i type="logical" name="ODDONLY"> F  </i>
   <i type="logical" name="EVENONLY"> F  </i>
   <i type="int" name="LMAXFOCK">     0</i>
   <i type="int" name="NMAXFOCKAE">     0</i>
   <i type="logical" name="LFOCKAEDFT"> F  </i>
   <i name="HFSCREEN">      0.00000000</i>
   <i name="HFSCREENC">      0.00000000</i>
   <i type="int" name="NBANDSGWLOW">     0</i>
  </separator>
  <separator name="vdW DFT" >
   <i type="logical" name="LUSE_VDW"> F  </i>
   <i name="Zab_VDW">     -0.84910000</i>
   <i name="PARAM1">      0.12340000</i>
   <i name="PARAM2">      1.00000000</i>
   <i name="PARAM3">      0.00000000</i>
  </separator>
  <separator name="model GW" >
   <i type="int" name="MODEL_GW">     0</i>
   <i name="MODEL_EPS0">     12.01436085</i>
   <i name="MODEL_ALPHA">      1.00000000</i>
  </separator>
  <separator name="linear response parameters" >
   <i type="logical" name="LEPSILON"> F  </i>
   <i type="logical" name="LRPA"> F  </i>
   <i type="logical" name="LNABLA"> F  </i>
   <i type="logical" name="LVEL"> F  </i>
   <i type="int" name="KINTER">     0</i>
   <i name="CSHIFT">      0.10000000</i>
   <i name="OMEGAMAX">     -1.00000000</i>
   <i name="DEG_THRESHOLD">      0.00200000</i>
  </separator>
  <separator name="orbital magnetization" >
   <i type="logical" name="NUCIND"> F  </i>
   <v name="MAGPOS">      0.00000000      0.00000000      0.00000000</v>
   <i type="logical" name="LNICSALL"> T  </i>
   <i type="logical" name="ORBITALMAG"> F  </i>
   <i type="logical" name="LMAGBLOCH"> F  </i>
   <i type="logical" name="LCHIMAG"> F  </i>
   <i type="logical" name="LGAUGE"> T  </i>
   <i type="int" name="MAGATOM">     0</i>
   <v name="MAGDIPOL">      0.00000000      0.00000000      0.00000000</v>
   <v name="AVECCONST">      0.00000000      0.00000000      0.00000000</v>
  </separator>
  <separator name="response functions" >
   <i type="logical" name="LADDER"> F  </i>
   <i type="logical" name="LFXC"> F  </i>
   <i type="logical" name="LHARTREE"> T  </i>
   <i type="int" name="IBSE">     0</i>
   <v type="int" name="KPOINT">    -1     0     0     0</v>
   <i type="logical" name="LTCTE"> F  </i>
   <i type="logical" name="LTETE"> F  </i>
   <i type="logical" name="LTRIPLET"> F  </i>
   <i type="logical" name="LFXCEPS"> F  </i>
   <i type="logical" name="LFXHEG"> F  </i>
   <i type="int" name="NATURALO">     0</i>
   <i type="logical" name="L2ORDER"> F  </i>
   <i type="logical" name="LUSEW"> F  </i>
   <i name="ENCUTGW">     -2.00000000</i>
   <i name="ENCUTGWSOFT">     -2.00000000</i>
   <i name="ENCUTLF">     -1.00000000</i>
   <i type="int" name="LMAXMP2">    -1</i>
   <i name="SCISSOR">      0.00000000</i>
   <i type="int" name="NOMEGA">     0</i>
   <i type="int" name="NOMEGAR">     0</i>
   <i type="int" name="NBANDSGW">    -1</i>
   <i type="int" name="NBANDSO">    -1</i>
   <i type="int" name="NBANDSV">    -1</i>
   <i type="int" name="NELM">    60</i>
   <i type="int" name="NELMHF">     1</i>
   <i type="int" name="DIM">     3</i>
   <i type="int" name="ANTIRES">     0</i>
   <i name="OMEGAMAX">    -30.00000000</i>
   <i name="OMEGAMIN">    -30.00000000</i>
   <i name="OMEGATL">   -200.00000000</i>
   <i type="int" name="OMEGAGRID">     0</i>
   <i name="CSHIFT">     -0.10000000</i>
   <i type="logical" name="SELFENERGY"> F  </i>
   <i type="logical" name="LSPECTRAL"> F  </i>
   <i type="logical" name="LSPECTRALGW"> F  </i>
   <i type="logical" name="LSINGLES"> F  </i>
   <i type="logical" name="LFERMIGW"> F  </i>
   <i type="logical" name="ODDONLYGW"> F  </i>
   <i type="logical" name="EVENONLYGW"> F  </i>
   <i type="int" name="NKREDLFX">     1</i>
   <i type="int" name="NKREDLFY">     1</i>
   <i type="int" name="NKREDLFZ">     1</i>
   <i type="int" name="MAXMEM">  1800</i>
   <i type="int" name="TELESCOPE">     0</i>
   <i type="int" name="TAUPAR">     1</i>
   <i type="int" name="OMEGAPAR">    -1</i>
   <i name="LAMBDA">      1.00000000</i>
  </separator>
  <separator name="External order field" >
   <i name="OFIELD_KAPPA">      0.00000000</i>
   <v name="OFIELD_K">      0.00000000      0.00000000      0.00000000</v>
   <i name="OFIELD_Q6_NEAR">      0.00000000</i>
   <i name="OFIELD_Q6_FAR">      0.00000000</i>
   <i name="OFIELD_A">      0.00000000</i>
  </separator>
 </parameters>
 <atominfo>
  <atoms>       8 </atoms>
  <types>       1 </types>
  <array name="atoms" >
   <dimension dim="1">ion</dimension>
   <field type="string">element</field>
   <field type="int">atomtype</field>
   <set>
    <rc><c>Si</c><c>   1</c></rc>
    <rc><c>Si</c><c>   1</c></rc>
    <rc><c>Si</c><c>   1</c></rc>
    <rc><c>Si</c><c>   1</c></rc>
    <rc><c>Si</c><c>   1</c></rc>
    <rc><c>Si</c><c>   1</c></rc>
    <rc><c>Si</c><c>   1</c></rc>
    <rc><c>Si</c><c>   1</c></rc>
   </set>
  </array>
  <array name="atomtypes" >
   <dimension dim="1">type</dimension>
   <field type="int">atomspertype</field>
   <field type="string">element</field>
   <field>mass</field>
   <field>valence</field>
   <field type="string">pseudopotential</field>
   <set>
    <rc><c>   8</c><c>Si</c><c>     28.08500000</c><c>      4.00000000</c><c>  PAW_PBE Si 05Jan2001                  </c></rc>
   </set>
  </array>
 </atominfo>
 <structure name="initialpos" >
  <crystal>
   <varray name="basis" >
    <v>       5.43100000       0.00000000       0.00000000 </v>
    <v>       0.00000000       5.43100000       0.00000000 </v>
    <v>       0.00000000       0.00000000       5.43100000 </v>
   </varray>
   <i name="volume">    160.19147799 </i>
   <varray name="rec_basis" >
    <v>       0.18412815       0.00000000       0.00000000 </v>
    <v>       0.00000000       0.18412815       0.00000000 </v>
    <v>       0.00000000       0.00000000       0.18412815 </v>
   </varray>
  </crystal>
  <varray name="positions" >
   <v>       0.00000000       0.00000000       0.00000000 </v>
   <v>       0.00000000       0.50000000       0.50000000 </v>
   <v>       0.50000000       0.00000000       0.50000000 </v>
   <v>       0.50000000       0.50000000       0.00000000 </v>
   <v>       0.25000000       0.25000000       0.25000000 </v>
   <v>       0.75000000       0.75000000       0.25000000 </v>
   <v>       0.75000000       0.25000000       0.75000000 </v>
   <v>       0.25000000       0.75000000       0.75000000 </v>
  </varray>
 </structure>
 <calculation>
  <scstep>
   <time name="dav">    0.30    0.30</time>
   <time name="total">    0.31    0.31</time>
   <energy>
    <i name="alphaZ">     13.44915721 </i>
    <i name="ewald">   -914.08579262 </i>
    <i name="hartreedc">    -44.03749844 </i>
    <i name="XCdc">    -74.41614067 </i>
    <i name="pawpsdc">    704.99039692 </i>
    <i name="pawaedc">   -564.24414232 </i>
    <i name="eentropy">     -0.00665804 </i>
    <i name="bandstr">     83.38261006 </i>
    <i name="atom">    824.48621262 </i>
    <i name="e_fr_energy">     29.51814473 </i>
    <i name="e_wo_entrp">     29.52480276 </i>
    <i name="e_0_energy">     29.52147374 </i>
   </energy>
  </scstep>
  <scstep>
   <time name="dav">    0.09    0.09</time>
   <time name="total">    0.09    0.10</time>
   <energy>
    <i name="e_fr_energy">    -41.29554904 </i>
    <i name="e_wo_entrp">    -41.29554904 </i>
    <i name="e_0_energy">    -41.29554904 </i>
   </energy>
  </scstep>
  <scstep>
   <time name="dav">    0.09    0.09</time>
   <time name="total">    0.10    0.25</time>
   <energy>
    <i name="e_fr_energy">    -43.96544413 </i>
    <i name="e_wo_entrp">    -43.96544413 </i>
    <i name="e_0_energy">    -43.96544413 </i>
   </energy>
  </scstep>
  <scstep>
   <time name="dav">    0.09    0.09</time>
   <time name="total">    0.10    0.11</time>
   <energy>
    <i name="e_fr_energy">    -43.50000531 </i>
    <i name="e_wo_entrp">    -43.50000531 </i>
    <i name="e_0_energy">    -43.50000531 </i>
   </energy>
  </scstep>
  <scstep>
   <time name="dav">    0.08    0.08</time>
   <time name="total">    0.09    0.10</time>
   <energy>
    <i name="e_fr_energy">    -43.27187457 </i>
    <i name="e_wo_entrp">    -43.27187457 </i>
    <i name="e_0_energy">    -43.27187457 </i>
   </energy>
  </scstep>
  <scstep>
   <time name="dav">    0.09    0.09</time>
   <time name="total">    0.10    0.10</time>
   <energy>
    <i name="e_fr_energy">    -43.27643083 </i>
    <i name="e_wo_entrp">    -43.27643083 </i>
    <i name="e_0_energy">    -43.27643083 </i>
   </energy>
  </scstep>
  <scstep>
   <time name="dav">    0.08    0.08</time>
   <time name="total">    0.09    0.09</time>
   <energy>
    <i name="e_fr_energy">    -43.27799932 </i>
    <i name="e_wo_entrp">    -43.27799932 </i>
    <i name="e_0_energy">    -43.27799932 </i>
   </energy>
  </scstep>
  <scstep>
   <time name="dav">    0.08    0.08</time>
   <time name="total">    0.10    0.10</time>
   <energy>
    <i name="e_fr_energy">    -43.27811753 </i>
    <i name="e_wo_entrp">    -43.27811753 </i>
    <i name="e_0_energy">    -43.27811753 </i>
   </energy>
  </scstep>
  <scstep>
   <time name="dav">    0.07    0.07</time>
   <time name="total">    0.08    0.08</time>
   <energy>
    <i name="alphaZ">     13.44915721 </i>
    <i name="ewald">   -914.08579262 </i>
    <i name="hartreedc">    -59.65614483 </i>
    <i name="XCdc">    -71.81839390 </i>
    <i name="pawpsdc">   4216.50688906 </i>
    <i name="pawaedc">  -4076.68729009 </i>
    <i name="eentropy">     -0.00000000 </i>
    <i name="bandstr">     24.52719281 </i>
    <i name="atom">    824.48621262 </i>
    <i name="e_fr_energy">    -43.27816975 </i>
    <i name="e_wo_entrp">    -43.27816975 </i>
    <i name="e_0_energy">    -43.27816975 </i>
   </energy>
  </scstep>
  <structure>
   <crystal>
    <varray name="basis" >
     <v>       5.43100000       0.00000000       0.00000000 </v>
     <v>       0.00000000       5.43100000       0.00000000 </v>
     <v>       0.00000000       0.00000000       5.43100000 </v>
    </varray>
    <i name="volume">    160.19147799 </i>
    <varray name="rec_basis" >
     <v>       0.18412815       0.00000000       0.00000000 </v>
     <v>       0.00000000       0.18412815       0.00000000 </v>
     <v>       0.00000000       0.00000000       0.18412815 </v>
    </varray>
   </crystal>
   <varray name="positions" >
    <v>       0.00000000       0.00000000       0.00000000 </v>
    <v>       0.00000000       0.50000000       0.50000000 </v>
    <v>       0.50000000       0.00000000       0.50000000 </v>
    <v>       0.50000000       0.50000000       0.00000000 </v>
    <v>       0.25000000       0.25000000       0.25000000 </v>
    <v>       0.75000000       0.75000000       0.25000000 </v>
    <v>       0.75000000       0.25000000       0.75000000 </v>
    <v>       0.25000000       0.75000000       0.75000000 </v>
   </varray>
  </structure>
  <varray name="forces" >
   <v>       0.00000000      -0.00000000      -0.00000000 </v>
   <v>       0.00000000      -0.00000000       0.00000000 </v>
   <v>       0.00000000      -0.00000000       0.00000000 </v>
   <v>       0.00000000      -0.00000000      -0.00000000 </v>
   <v>      -0.00000000       0.00000000       0.00000000 </v>
   <v>      -0.00000000       0.00000000       0.00000000 </v>
   <v>      -0.00000000       0.00000000      -0.00000000 </v>
   <v>      -0.00000000       0.00000000      -0.00000000 </v>
  </varray>
  <varray name="stress" >
   <v>      17.37800428       0.00000000      -0.00000000 </v>
   <v>      -0.00000000      17.37800428      -0.00000000 </v>
   <v>      -0.00000000       0.00000000      17.37800428 </v>
  </varray>
  <energy>
   <i name="e_fr_energy">    -43.27816975 </i>
   <i name="e_wo_entrp">    -43.27816975 </i>
   <i name="e_0_energy">     -0.00000000 </i>
  </energy>
  <time name="totalsc">    1.23    1.45</time>
 </calculation>
 <calculation>
  <scstep>
   <time name="dav">    0.08    0.08</time>
   <time name="total">    0.09    0.09</time>
   <energy>
    <i name="alphaZ">     12.63788834 </i>
    <i name="ewald">   -895.32375363 </i>
    <i name="hartreedc">    -58.43257011 </i>
    <i name="XCdc">    -73.03637652 </i>
    <i name="pawpsdc">   4221.18595432 </i>
    <i name="pawaedc">  -4081.36579119 </i>
    <i name="eentropy">     -0.00000000 </i>
    <i name="bandstr">      6.55687768 </i>
    <i name="atom">    824.48621262 </i>
    <i name="e_fr_energy">    -43.29155848 </i>
    <i name="e_wo_entrp">    -43.29155848 </i>
    <i name="e_0_energy">    -43.29155848 </i>
   </energy>
  </scstep>
  <scstep>
   <time name="dav">    0.12    0.14</time>
   <time name="total">    0.12    0.17</time>
   <energy>
    <i name="e_fr_energy">    -43.29740461 </i>
    <i name="e_wo_entrp">    -43.29740461 </i>
    <i name="e_0_energy">    -43.29740461 </i>
   </energy>
  </scstep>
  <scstep>
   <time name="dav">    0.10    0.10</time>
   <time name="total">    0.11    0.11</time>
   <energy>
    <i name="e_fr_energy">    -43.29745028 </i>
    <i name="e_wo_entrp">    -43.29745028 </i>
    <i name="e_0_energy">    -43.29745028 </i>
   </energy>
  </scstep>
  <scstep>
   <time name="dav">    0.10    0.10</time>
   <time name="total">    0.11    0.11</time>
   <energy>
    <i name="e_fr_energy">    -43.23954612 </i>
    <i name="e_wo_entrp">    -43.23954612 </i>
    <i name="e_0_energy">    -43.23954612 </i>
   </energy>
  </scstep>
  <scstep>
   <time name="dav">    0.08    0.09</time>
   <time name="total">    0.10    0.11</time>
   <energy>
    <i name="e_fr_energy">    -43.21106101 </i>
    <i name="e_wo_entrp">    -43.21106101 </i>
    <i name="e_0_energy">    -43.21106101 </i>
   </energy>
  </scstep>
  <scstep>
   <time name="dav">    0.10    0.11</time>
   <time name="total">    0.11    0.13</time>
   <energy>
    <i name="e_fr_energy">    -43.21084516 </i>
    <i name="e_wo_entrp">    -43.21084516 </i>
    <i name="e_0_energy">    -43.21084516 </i>
   </energy>
  </scstep>
  <scstep>
   <time name="dav">    0.09    0.13</time>
   <time name="total">    0.10    0.15</time>
   <energy>
    <i name="alphaZ">     12.63788834 </i>
    <i name="ewald">   -895.32375363 </i>
    <i name="hartreedc">    -62.64290930 </i>
    <i name="XCdc">    -72.94538224 </i>
    <i name="pawpsdc">   3791.36780422 </i>
    <i name="pawaedc">  -3651.33909892 </i>
    <i name="eentropy">     -0.00000000 </i>
    <i name="bandstr">     10.54845449 </i>
    <i name="atom">    824.48621262 </i>
    <i name="e_fr_energy">    -43.21078441 </i>
    <i name="e_wo_entrp">    -43.21078441 </i>
    <i name="e_0_energy">    -43.21078441 </i>
   </energy>
  </scstep>
  <structure>
   <crystal>
    <varray name="basis" >
     <v>       5.54480982       0.00000000      -0.00000000 </v>
     <v>      -0.00000000       5.54480982      -0.00000000 </v>
     <v>      -0.00000000       0.00000000       5.54480982 </v>
    </varray>
    <i name="volume">    170.47471167 </i>
    <varray name="rec_basis" >
     <v>       0.18034884       0.00000000       0.00000000 </v>
     <v>      -0.00000000       0.18034884      -0.00000000 </v>
     <v>       0.00000000       0.00000000       0.18034884 </v>
    </varray>
   </crystal>
   <varray name="positions" >
    <v>       0.00000000      -0.00000000      -0.00000000 </v>
    <v>       0.00000000       0.50000000       0.50000000 </v>
    <v>       0.50000000      -0.00000000       0.50000000 </v>
    <v>       0.50000000       0.50000000      -0.00000000 </v>
    <v>       0.25000000       0.25000000       0.25000000 </v>
    <v>       0.75000000       0.75000000       0.25000000 </v>
    <v>       0.75000000       0.25000000       0.75000000 </v>
    <v>       0.25000000       0.75000000       0.75000000 </v>
   </varray>
  </structure>
  <varray name="forces" >
   <v>      -0.00000000       0.00000000      -0.00000000 </v>
   <v>      -0.00000000       0.00000000      -0.00000000 </v>
   <v>      -0.00000000       0.00000000      -0.00000000 </v>
   <v>      -0.00000000       0.00000000      -0.00000000 </v>
   <v>       0.00000000      -0.00000000       0.00000000 </v>
   <v>       0.00000000      -0.00000000       0.00000000 </v>
   <v>       0.00000000      -0.00000000       0.00000000 </v>
   <v>       0.00000000      -0.00000000       0.00000000 </v>
  </varray>
  <varray name="stress" >
   <v>     -35.39220630       0.00000000       0.00000000 </v>
   <v>      -0.00000000     -35.39220630       0.00000000 </v>
   <v>      -0.00000000      -0.00000000     -35.39220630 </v>
  </varray>
  <energy>
   <i name="e_fr_energy">    -43.21078441 </i>
   <i name="e_wo_entrp">    -43.21078441 </i>
   <i name="e_0_energy">     -0.00000000 </i>
  </energy>
  <time name="totalsc">    0.79    0.96</time>
 </calculation>
 <calculation>
  <scstep>
   <time name="dav">    0.09    0.11</time>
   <time name="total">    0.12    0.14</time>
   <energy>
    <i name="alphaZ">     13.19664822 </i>
    <i name="ewald">   -908.32893478 </i>
    <i name="hartreedc">    -63.56624068 </i>
    <i name="XCdc">    -72.11005889 </i>
    <i name="pawpsdc">   3816.95778228 </i>
    <i name="pawaedc">  -3676.93326032 </i>
    <i name="eentropy">     -0.00000000 </i>
    <i name="bandstr">     22.96460415 </i>
    <i name="atom">    824.48621262 </i>
    <i name="e_fr_energy">    -43.33324739 </i>
    <i name="e_wo_entrp">    -43.33324739 </i>
    <i name="e_0_energy">    -43.33324739 </i>
   </energy>
  </scstep>
  <scstep>
   <time name="dav">    0.09    0.10</time>
   <time name="total">    0.09    0.11</time>
   <energy>
    <i name="e_fr_energy">    -43.33682564 </i>
    <i name="e_wo_entrp">    -43.33682564 </i>
    <i name="e_0_energy">    -43.33682564 </i>
   </energy>
  </scstep>
  <scstep>
   <time name="dav">    0.11    0.12</time>
   <time name="total">    0.14    0.14</time>
   <energy>
    <i name="e_fr_energy">    -43.33684498 </i>
    <i name="e_wo_entrp">    -43.33684498 </i>
    <i name="e_0_energy">    -43.33684498 </i>
   </energy>
  </scstep>
  <scstep>
   <time name="dav">    0.08    0.08</time>
   <time name="total">    0.10    0.10</time>
   <energy>
    <i name="e_fr_energy">    -43.30815261 </i>
    <i name="e_wo_entrp">    -43.30815261 </i>
    <i name="e_0_energy">    -43.30815261 </i>
   </energy>
  </scstep>
  <scstep>
   <time name="dav">    0.10    0.10</time>
   <time name="total">    0.12    0.13</time>
   <energy>
    <i name="e_fr_energy">    -43.29427952 </i>
    <i name="e_wo_entrp">    -43.29427952 </i>
    <i name="e_0_energy">    -43.29427952 </i>
   </energy>
  </scstep>
  <scstep>
   <time name="dav">    0.11    0.12</time>
   <time name="total">    0.12    0.13</time>
   <energy>
    <i name="alphaZ">     13.19664822 </i>
    <i name="ewald">   -908.32893478 </i>
    <i name="hartreedc">    -60.64454100 </i>
    <i name="XCdc">    -72.15048480 </i>
    <i name="pawpsdc">   4052.07192827 </i>
    <i name="pawaedc">  -3912.20420998 </i>
    <i name="eentropy">     -0.00000000 </i>
    <i name="bandstr">     20.27911627 </i>
    <i name="atom">    824.48621262 </i>
    <i name="e_fr_energy">    -43.29426517 </i>
    <i name="e_wo_entrp">    -43.29426517 </i>
    <i name="e_0_energy">    -43.29426517 </i>
   </energy>
  </scstep>
  <structure>
   <crystal>
    <varray name="basis" >
     <v>       5.46542090       0.00000000      -0.00000000 </v>
     <v>      -0.00000000       5.46542090      -0.00000000 </v>
     <v>      -0.00000000       0.00000000       5.46542090 </v>
    </varray>
    <i name="volume">    163.25663417 </i>
    <varray name="rec_basis" >
     <v>       0.18296853       0.00000000       0.00000000 </v>
     <v>      -0.00000000       0.18296853      -0.00000000 </v>
     <v>       0.00000000       0.00000000       0.18296853 </v>
    </varray>
   </crystal>
   <varray name="positions" >
    <v>       0.00000000      -0.00000000      -0.00000000 </v>
    <v>       0.00000000       0.50000000       0.50000000 </v>
    <v>       0.50000000      -0.00000000       0.50000000 </v>
    <v>       0.50000000       0.50000000      -0.00000000 </v>
    <v>       0.25000000       0.25000000       0.25000000 </v>
    <v>       0.75000000       0.75000000       0.25000000 </v>
    <v>       0.75000000       0.25000000       0.75000000 </v>
    <v>       0.25000000       0.75000000       0.75000000 </v>
   </varray>
  </structure>
  <varray name="forces" >
   <v>      -0.00000000       0.00000000       0.00000000 </v>
   <v>       0.00000000      -0.00000000       0.00000000 </v>
   <v>       0.00000000       0.00000000       0.00000000 </v>
   <v>       0.00000000      -0.00000000       0.00000000 </v>
   <v>      -0.00000000       0.00000000      -0.00000000 </v>
   <v>       0.00000000      -0.00000000      -0.00000000 </v>
   <v>      -0.00000000       0.00000000      -0.00000000 </v>
   <v>      -0.00000000      -0.00000000      -0.00000000 </v>
  </varray>
  <varray name="stress" >
   <v>      -0.85956192       0.00000000      -0.00000000 </v>
   <v>       0.00000000      -0.85956192       0.00000000 </v>
   <v>       0.00000000       0.00000000      -0.85956192 </v>
  </varray>
  <energy>
   <i name="e_fr_energy">    -43.29426517 </i>
   <i name="e_wo_entrp">    -43.29426517 </i>
   <i name="e_0_energy">     -0.00000000 </i>
  </energy>
  <time name="totalsc">    0.76    0.83</time>
 </calculation>
 <calculation>
  <scstep>
   <time name="dav">    0.09    0.09</time>
   <time name="total">    0.10    0.10</time>
   <energy>
    <i name="alphaZ">     13.20862104 </i>
    <i name="ewald">   -908.60354912 </i>
    <i name="hartreedc">    -60.57264762 </i>
    <i name="XCdc">    -72.14572719 </i>
    <i name="pawpsdc">   4102.88350721 </i>
    <i name="pawaedc">  -3962.99865645 </i>
    <i name="eentropy">     -0.00000000 </i>
    <i name="bandstr">     20.44804204 </i>
    <i name="atom">    824.48621262 </i>
    <i name="e_fr_energy">    -43.29419748 </i>
    <i name="e_wo_entrp">    -43.29419748 </i>
    <i name="e_0_energy">    -43.29419748 </i>
   </energy>
  </scstep>
  <scstep>
   <time name="dav">    0.05    0.06</time>
   <time name="total">    0.05    0.06</time>
   <energy>
    <i name="e_fr_energy">    -43.29419806 </i>
    <i name="e_wo_entrp">    -43.29419806 </i>
    <i name="e_0_energy">    -43.29419806 </i>
   </energy>
  </scstep>
  <scstep>
   <time name="dav">    0.05    0.05</time>
   <time name="total">    0.06    0.06</time>
   <energy>
    <i name="e_fr_energy">    -43.29419811 </i>
    <i name="e_wo_entrp">    -43.29419811 </i>
    <i name="e_0_energy">    -43.29419811 </i>
   </energy>
  </scstep>
  <scstep>
   <time name="dav">    0.05    0.05</time>
   <time name="total">    0.06    0.06</time>
   <energy>
    <i name="alphaZ">     13.20862104 </i>
    <i name="ewald">   -908.60354912 </i>
    <i name="hartreedc">    -60.54776818 </i>
    <i name="XCdc">    -72.14688223 </i>
    <i name="pawpsdc">   4101.20294943 </i>
    <i name="pawaedc">  -3961.31842050 </i>
    <i name="eentropy">     -0.00000000 </i>
    <i name="bandstr">     20.42464663 </i>
    <i name="atom">    824.48621262 </i>
    <i name="e_fr_energy">    -43.29419032 </i>
    <i name="e_wo_entrp">    -43.29419032 </i>
    <i name="e_0_energy">    -43.29419032 </i>
   </energy>
  </scstep>
  <structure>
   <crystal>
    <varray name="basis" >
     <v>       5.46376904       0.00000000      -0.00000000 </v>
     <v>      -0.00000000       5.46376904      -0.00000000 </v>
     <v>      -0.00000000       0.00000000       5.46376904 </v>
    </varray>
    <i name="volume">    163.10865193 </i>
    <varray name="rec_basis" >
     <v>       0.18302384       0.00000000       0.00000000 </v>
     <v>      -0.00000000       0.18302384      -0.00000000 </v>
     <v>       0.00000000       0.00000000       0.18302384 </v>
    </varray>
   </crystal>
   <varray name="positions" >
    <v>       0.00000000      -0.00000000      -0.00000000 </v>
    <v>       0.00000000       0.50000000       0.50000000 </v>
    <v>       0.50000000      -0.00000000       0.50000000 </v>
    <v>       0.50000000       0.50000000      -0.00000000 </v>
    <v>       0.25000000       0.25000000       0.25000000 </v>
    <v>       0.75000000       0.75000000       0.25000000 </v>
    <v>       0.75000000       0.25000000       0.75000000 </v>
    <v>       0.25000000       0.75000000       0.75000000 </v>
   </varray>
  </structure>
  <varray name="forces" >
   <v>       0.00000000      -0.00000000       0.00000000 </v>
   <v>      -0.00000000      -0.00000000       0.00000000 </v>
   <v>       0.00000000       0.00000000       0.00000000 </v>
   <v>       0.00000000      -0.00000000       0.00000000 </v>
   <v>      -0.00000000       0.00000000      -0.00000000 </v>
   <v>      -0.00000000      -0.00000000      -0.00000000 </v>
   <v>       0.00000000       0.00000000      -0.00000000 </v>
   <v>      -0.00000000       0.00000000      -0.00000000 </v>
  </varray>
  <varray name="stress" >
   <v>       0.30020620       0.00000000       0.00000000 </v>
   <v>       0.00000000       0.30020620       0.00000000 </v>
   <v>      -0.00000000       0.00000000       0.30020620 </v>
  </varray>
  <energy>
   <i name="e_fr_energy">    -43.29419032 </i>
   <i name="e_wo_entrp">    -43.29419032 </i>
   <i name="e_0_energy">     -0.00000000 </i>
  </energy>
  <time name="totalsc">    0.33    0.37</time>
  <eigenvalues>
   <array>
    <dimension dim="1">band</dimension>
    <dimension dim="2">kpoint</dimension>
    <dimension dim="3">spin</dimension>
    <field>eigene</field>
    <field>occ</field>
    <set>
     <set comment="spin 1">
      <set comment="kpoint 1">
       <r>   -6.0997    1.0000 </r>
       <r>   -2.6982    1.0000 </r>
       <r>   -2.6982    1.0000 </r>
       <r>   -2.6982    1.0000 </r>
       <r>   -1.4540    1.0000 </r>
       <r>   -1.4540    1.0000 </r>
       <r>   -1.4540    1.0000 </r>
       <r>    2.5330    1.0000 </r>
       <r>    2.5330    1.0000 </r>
       <r>    2.5330    1.0000 </r>
       <r>    2.9198    1.0000 </r>
       <r>    2.9198    1.0000 </r>
       <r>    2.9198    1.0000 </r>
       <r>    4.7964    1.0000 </r>
       <r>    5.5164    1.0000 </r>
       <r>    5.5164    1.0000 </r>
       <r>    6.4707    0.0000 </r>
       <r>    6.4707    0.0000 </r>
       <r>    6.4707    0.0000 </r>
       <r>    7.0328    0.0000 </r>
       <r>    7.0328    0.0000 </r>
       <r>    7.0328    0.0000 </r>
       <r>    8.2272    0.0000 </r>
       <r>    8.4241    0.0000 </r>
       <r>    8.4241    0.0000 </r>
      </set>
      <set comment="kpoint 2">
       <r>   -5.8621    1.0000 </r>
       <r>   -3.7887    1.0000 </r>
       <r>   -2.6092    1.0000 </r>
       <r>   -2.6092    1.0000 </r>
       <r>   -1.4468    1.0000 </r>
       <r>   -1.4468    1.0000 </r>
       <r>   -0.1204    1.0000 </r>
       <r>    1.9701    1.0000 </r>
       <r>    1.9701    1.0000 </r>
       <r>    2.7335    1.0000 </r>
       <r>    2.7335    1.0000 </r>
       <r>    2.7992    1.0000 </r>
       <r>    3.1337    1.0000 </r>
       <r>    3.7285    1.0000 </r>
       <r>    4.8763    1.0000 </r>
       <r>    5.0575    1.0000 </r>
       <r>    6.5782    0.0000 </r>
       <r>    7.1990    0.0000 </r>
       <r>    7.1990    0.0000 </r>
       <r>    7.5530    0.0000 </r>
       <r>    7.9655    0.0000 </r>
       <r>    8.3111    0.0000 </r>
       <r>    8.3111    0.0000 </r>
       <r>    8.8277    0.0000 </r>
       <r>    9.3186    0.0000 </r>
      </set>
      <set comment="kpoint 3">
       <r>   -5.3908    1.0000 </r>
       <r>   -4.6945    1.0000 </r>
       <r>   -2.5058    1.0000 </r>
       <r>   -2.5058    1.0000 </r>
       <r>   -1.4545    1.0000 </r>
       <r>   -1.4545    1.0000 </r>
       <r>    1.2337    1.0000 </r>
       <r>    1.6457    1.0000 </r>
       <r>    1.6457    1.0000 </r>
       <r>    2.4112    1.0000 </r>
       <r>    2.4112    1.0000 </r>
       <r>    2.5294    1.0000 </r>
       <r>    3.3369    1.0000 </r>
       <r>    3.5519    1.0000 </r>
       <r>    4.1349    1.0000 </r>
       <r>    4.1531    1.0000 </r>
       <r>    6.8925    0.0000 </r>
       <r>    7.3912    0.0000 </r>
       <r>    8.4590    0.0000 </r>
       <r>    8.6889    0.0000 </r>
       <r>    8.6889    0.0000 </r>
       <r>    9.5162    0.0000 </r>
       <r>    9.9515    0.0000 </r>
       <r>    9.9515    0.0000 </r>
       <r>   10.3267    0.0000 </r>
      </set>
      <set comment="kpoint 4">
       <r>   -5.6290    1.0000 </r>
       <r>   -3.6232    1.0000 </r>
       <r>   -3.6232    1.0000 </r>
       <r>   -2.7141    1.0000 </r>
       <r>   -1.3580    1.0000 </r>
       <r>   -0.3404    1.0000 </r>
       <r>   -0.3404    1.0000 </r>
       <r>    1.5210    1.0000 </r>
       <r>    2.2857    1.0000 </r>
       <r>    2.2857    1.0000 </r>
       <r>    2.7251    1.0000 </r>
       <r>    3.0704    1.0000 </r>
       <r>    3.0704    1.0000 </r>
       <r>    3.2896    1.0000 </r>
       <r>    4.2916    1.0000 </r>
       <r>    5.3057    1.0000 </r>
       <r>    6.9297    0.0000 </r>
       <r>    7.4052    0.0000 </r>
       <r>    7.4052    0.0000 </r>
       <r>    8.3183    0.0000 </r>
       <r>    8.6795    0.0000 </r>
       <r>    8.6795    0.0000 </r>
       <r>    8.8181    0.0000 </r>
       <r>    9.1697    0.0000 </r>
       <r>    9.8203    0.0000 </r>
      </set>
      <set comment="kpoint 5">
       <r>   -5.1683    1.0000 </r>
       <r>   -4.4919    1.0000 </r>
       <r>   -3.3257    1.0000 </r>
       <r>   -2.9786    1.0000 </r>
       <r>   -1.1091    1.0000 </r>
       <r>   -0.7227    1.0000 </r>
       <r>    0.7052    1.0000 </r>
       <r>    1.4919    1.0000 </r>
       <r>    1.7049    1.0000 </r>
       <r>    1.8045    1.0000 </r>
       <r>    2.8332    1.0000 </r>
       <r>    3.0695    1.0000 </r>
       <r>    3.2722    1.0000 </r>
       <r>    3.5226    1.0000 </r>
       <r>    3.7690    1.0000 </r>
       <r>    4.6845    1.0000 </r>
       <r>    7.7901    0.0000 </r>
       <r>    7.8108    0.0000 </r>
       <r>    8.2681    0.0000 </r>
       <r>    8.8894    0.0000 </r>
       <r>    9.1193    0.0000 </r>
       <r>    9.4066    0.0000 </r>
       <r>    9.4191    0.0000 </r>
       <r>   10.1869    0.0000 </r>
       <r>   10.1975    0.0000 </r>
      </set>
      <set comment="kpoint 6">
       <r>   -4.7323    1.0000 </r>
       <r>   -4.1034    1.0000 </r>
       <r>   -4.1034    1.0000 </r>
       <r>   -3.5701    1.0000 </r>
       <r>   -0.6064    1.0000 </r>
       <r>    0.0215    1.0000 </r>
       <r>    0.0215    1.0000 </r>
       <r>    0.8248    1.0000 </r>
       <r>    1.7047    1.0000 </r>
       <r>    2.1972    1.0000 </r>
       <r>    2.1972    1.0000 </r>
       <r>    2.7978    1.0000 </r>
       <r>    3.9586    1.0000 </r>
       <r>    4.0251    1.0000 </r>
       <r>    4.0251    1.0000 </r>
       <r>    4.7365    1.0000 </r>
       <r>    7.6927    0.0000 </r>
       <r>    8.4088    0.0000 </r>
       <r>    8.6241    0.0000 </r>
       <r>    8.6241    0.0000 </r>
       <r>    9.2580    0.0000 </r>
       <r>    9.2580    0.0000 </r>
       <r>    9.6462    0.0000 </r>
       <r>    9.8194    0.0000 </r>
       <r>   10.9188    0.0000 </r>
      </set>
      <set comment="kpoint 7">
       <r>   -5.4026    1.0000 </r>
       <r>   -3.5179    1.0000 </r>
       <r>   -3.5179    1.0000 </r>
       <r>   -3.5179    1.0000 </r>
       <r>   -0.6850    1.0000 </r>
       <r>   -0.6850    1.0000 </r>
       <r>   -0.6850    1.0000 </r>
       <r>    1.7571    1.0000 </r>
       <r>    2.1760    1.0000 </r>
       <r>    2.1760    1.0000 </r>
       <r>    2.1760    1.0000 </r>
       <r>    3.4825    1.0000 </r>
       <r>    3.4825    1.0000 </r>
       <r>    3.4825    1.0000 </r>
       <r>    4.9051    1.0000 </r>
       <r>    4.9051    1.0000 </r>
       <r>    7.2034    0.0000 </r>
       <r>    7.2034    0.0000 </r>
       <r>    7.2034    0.0000 </r>
       <r>    7.6270    0.0000 </r>
       <r>    9.1579    0.0000 </r>
       <r>    9.1579    0.0000 </r>
       <r>   10.1068    0.0000 </r>
       <r>   10.1068    0.0000 </r>
       <r>   10.1068    0.0000 </r>
      </set>
      <set comment="kpoint 8">
       <r>   -4.9576    1.0000 </r>
       <r>   -4.3140    1.0000 </r>
       <r>   -3.3939    1.0000 </r>
       <r>   -3.3939    1.0000 </r>
       <r>   -1.0200    1.0000 </r>
       <r>   -1.0200    1.0000 </r>
       <r>    0.0272    1.0000 </r>
       <r>    0.8279    1.0000 </r>
       <r>    2.2344    1.0000 </r>
       <r>    2.2344    1.0000 </r>
       <r>    3.2515    1.0000 </r>
       <r>    3.5454    1.0000 </r>
       <r>    3.5454    1.0000 </r>
       <r>    3.8525    1.0000 </r>
       <r>    4.3573    1.0000 </r>
       <r>    4.3857    1.0000 </r>
       <r>    7.6761    0.0000 </r>
       <r>    7.9086    0.0000 </r>
       <r>    8.0373    0.0000 </r>
       <r>    8.0373    0.0000 </r>
       <r>    8.9464    0.0000 </r>
       <r>    9.5815    0.0000 </r>
       <r>    9.5815    0.0000 </r>
       <r>    9.7441    0.0000 </r>
       <r>    9.8660    0.0000 </r>
      </set>
      <set comment="kpoint 9">
       <r>   -4.5517    1.0000 </r>
       <r>   -3.9944    1.0000 </r>
       <r>   -3.9944    1.0000 </r>
       <r>   -3.6328    1.0000 </r>
       <r>   -1.0445    1.0000 </r>
       <r>   -0.6463    1.0000 </r>
       <r>   -0.6463    1.0000 </r>
       <r>   -0.0090    1.0000 </r>
       <r>    2.7026    1.0000 </r>
       <r>    3.1228    1.0000 </r>
       <r>    3.1228    1.0000 </r>
       <r>    3.8276    1.0000 </r>
       <r>    4.0839    1.0000 </r>
       <r>    4.1213    1.0000 </r>
       <r>    4.1213    1.0000 </r>
       <r>    4.6715    1.0000 </r>
       <r>    7.8084    0.0000 </r>
       <r>    7.8405    0.0000 </r>
       <r>    8.2254    0.0000 </r>
       <r>    8.2254    0.0000 </r>
       <r>    8.8745    0.0000 </r>
       <r>    8.8745    0.0000 </r>
       <r>    9.2164    0.0000 </r>
       <r>    9.2599    0.0000 </r>
       <r>    9.6961    0.0000 </r>
      </set>
      <set comment="kpoint 10">
       <r>   -4.2282    1.0000 </r>
       <r>   -3.8657    1.0000 </r>
       <r>   -3.8657    1.0000 </r>
       <r>   -3.8657    1.0000 </r>
       <r>   -1.1374    1.0000 </r>
       <r>   -1.1374    1.0000 </r>
       <r>   -1.1374    1.0000 </r>
       <r>   -0.7423    1.0000 </r>
       <r>    3.8908    1.0000 </r>
       <r>    3.8908    1.0000 </r>
       <r>    3.8908    1.0000 </r>
       <r>    4.2960    1.0000 </r>
       <r>    4.2960    1.0000 </r>
       <r>    4.2960    1.0000 </r>
       <r>    4.5185    1.0000 </r>
       <r>    4.5185    1.0000 </r>
       <r>    7.1920    0.0000 </r>
       <r>    7.6544    0.0000 </r>
       <r>    7.6544    0.0000 </r>
       <r>    7.6544    0.0000 </r>
       <r>    8.9397    0.0000 </r>
       <r>    8.9397    0.0000 </r>
       <r>    8.9397    0.0000 </r>
       <r>    9.0709    0.0000 </r>
       <r>    9.0709    0.0000 </r>
      </set>
     </set>
    </set>
   </array>
  </eigenvalues>
  <separator name="orbital magnetization" >
   <v name="MAGDIPOLOUT">      0.00000000      0.00000000      0.00000000</v>
  </separator>
  <dos>
   <i name="efermi">      5.96016836 </i>
   <total>
    <array>
     <dimension dim="1">gridpoints</dimension>
     <dimension dim="2">spin</dimension>
     <field>energy</field>
     <field>total</field>
     <field>integrated</field>
     <set>
      <set comment="spin 1">
       <r>    -7.0997     0.0000     0.0000 </r>
       <r>    -7.0363     0.0000     0.0000 </r>
       <r>    -6.9729     0.0000     0.0000 </r>
       <r>    -6.9095     0.0000     0.0000 </r>
       <r>    -6.8462     0.0000     0.0000 </r>
       <r>    -6.7828     0.0000     0.0000 </r>
       <r>    -6.7194     0.0000     0.0000 </r>
       <r>    -6.6560     0.0000     0.0000 </r>
       <r>    -6.5926     0.0000     0.0000 </r>
       <r>    -6.5292     0.0000     0.0000 </r>
       <r>    -6.4658     0.0000     0.0000 </r>
       <r>    -6.4024     0.0000     0.0000 </r>
       <r>    -6.3390     0.0004     0.0000 </r>
       <r>    -6.2756     0.0071     0.0005 </r>
       <r>    -6.2122     0.0577     0.0041 </r>
       <r>    -6.1488     0.2197     0.0181 </r>
       <r>    -6.0854     0.3958     0.0432 </r>
       <r>    -6.0220     0.3705     0.0666 </r>
       <r>    -5.9586     0.3922     0.0915 </r>
       <r>    -5.8952     0.8438     0.1450 </r>
       <r>    -5.8318     1.2219     0.2225 </r>
       <r>    -5.7684     0.9252     0.2811 </r>
       <r>    -5.7050     0.6882     0.3247 </r>
       <r>    -5.6416     1.0536     0.3915 </r>
       <r>    -5.5782     1.1961     0.4674 </r>
       <r>    -5.5149     0.8252     0.5197 </r>
       <r>    -5.4515     0.9321     0.5788 </r>
       <r>    -5.3881     1.5412     0.6765 </r>
       <r>    -5.3247     1.5061     0.7720 </r>
       <r>    -5.2613     1.1935     0.8476 </r>
       <r>    -5.1979     1.8401     0.9643 </r>
       <r>    -5.1345     2.4582     1.1201 </r>
       <r>    -5.0711     1.7923     1.2337 </r>
       <r>    -5.0077     1.1604     1.3073 </r>
       <r>    -4.9443     1.2560     1.3869 </r>
       <r>    -4.8809     1.0808     1.4554 </r>
       <r>    -4.8175     0.8711     1.5107 </r>
       <r>    -4.7541     1.5683     1.6101 </r>
       <r>    -4.6907     2.4322     1.7643 </r>
       <r>    -4.6273     2.4030     1.9166 </r>
       <r>    -4.5639     2.5978     2.0813 </r>
       <r>    -4.5005     3.4007     2.2969 </r>
       <r>    -4.4371     3.0882     2.4927 </r>
       <r>    -4.3737     1.9455     2.6160 </r>
       <r>    -4.3103     1.5743     2.7158 </r>
       <r>    -4.2469     1.5709     2.8154 </r>
       <r>    -4.1836     1.6651     2.9209 </r>
       <r>    -4.1202     2.5248     3.0810 </r>
       <r>    -4.0568     3.5230     3.3044 </r>
       <r>    -3.9934     3.7153     3.5399 </r>
       <r>    -3.9300     3.1510     3.7396 </r>
       <r>    -3.8666     2.5653     3.9023 </r>
       <r>    -3.8032     2.3938     4.0540 </r>
       <r>    -3.7398     2.2707     4.1980 </r>
       <r>    -3.6764     2.9752     4.3866 </r>
       <r>    -3.6130     4.7040     4.6848 </r>
       <r>    -3.5496     5.1552     5.0116 </r>
       <r>    -3.4862     4.0186     5.2664 </r>
       <r>    -3.4228     3.6457     5.4975 </r>
       <r>    -3.3594     4.4008     5.7765 </r>
       <r>    -3.2960     4.0816     6.0352 </r>
       <r>    -3.2326     2.2127     6.1755 </r>
       <r>    -3.1692     0.6619     6.2175 </r>
       <r>    -3.1058     0.3203     6.2378 </r>
       <r>    -3.0424     1.0393     6.3037 </r>
       <r>    -2.9790     2.2032     6.4433 </r>
       <r>    -2.9157     2.2253     6.5844 </r>
       <r>    -2.8523     1.1806     6.6593 </r>
       <r>    -2.7889     0.9900     6.7220 </r>
       <r>    -2.7255     2.2400     6.8640 </r>
       <r>    -2.6621     3.7101     7.0992 </r>
       <r>    -2.5987     4.3123     7.3726 </r>
       <r>    -2.5353     4.1650     7.6367 </r>
       <r>    -2.4719     3.3327     7.8479 </r>
       <r>    -2.4085     1.7916     7.9615 </r>
       <r>    -2.3451     0.5258     7.9948 </r>
       <r>    -2.2817     0.0760     7.9997 </r>
       <r>    -2.2183     0.0052     8.0000 </r>
       <r>    -2.1549     0.0002     8.0000 </r>
       <r>    -2.0915     0.0000     8.0000 </r>
       <r>    -2.0281     0.0000     8.0000 </r>
       <r>    -1.9647     0.0000     8.0000 </r>
       <r>    -1.9013     0.0000     8.0000 </r>
       <r>    -1.8379     0.0000     8.0000 </r>
       <r>    -1.7745     0.0000     8.0000 </r>
       <r>    -1.7111     0.0021     8.0001 </r>
       <r>    -1.6477     0.0465     8.0031 </r>
       <r>    -1.5844     0.4821     8.0336 </r>
       <r>    -1.5210     2.3581     8.1831 </r>
       <r>    -1.4576     5.5380     8.5342 </r>
       <r>    -1.3942     6.4908     8.9457 </r>
       <r>    -1.3308     4.1269     9.2073 </r>
       <r>    -1.2674     1.7633     9.3191 </r>
       <r>    -1.2040     1.4805     9.4130 </r>
       <r>    -1.1406     3.3443     9.6250 </r>
       <r>    -1.0772     5.5349     9.9759 </r>
       <r>    -1.0138     5.7077    10.3377 </r>
       <r>    -0.9504     3.6334    10.5680 </r>
       <r>    -0.8870     1.3975    10.6566 </r>
       <r>    -0.8236     0.9539    10.7171 </r>
       <r>    -0.7602     2.6898    10.8876 </r>
       <r>    -0.6968     5.4212    11.2313 </r>
       <r>    -0.6334     6.4054    11.6374 </r>
       <r>    -0.5700     4.5442    11.9255 </r>
       <r>    -0.5066     1.9340    12.0481 </r>
       <r>    -0.4432     0.8683    12.1031 </r>
       <r>    -0.3798     1.5606    12.2020 </r>
       <r>    -0.3164     2.4246    12.3558 </r>
       <r>    -0.2531     1.9149    12.4772 </r>
       <r>    -0.1897     1.1429    12.5496 </r>
       <r>    -0.1263     1.4894    12.6440 </r>
       <r>    -0.0629     2.7489    12.8183 </r>
       <r>     0.0005     4.4873    13.1028 </r>
       <r>     0.0639     4.7822    13.4059 </r>
       <r>     0.1273     2.6863    13.5762 </r>
       <r>     0.1907     0.7390    13.6231 </r>
       <r>     0.2541     0.0972    13.6292 </r>
       <r>     0.3175     0.0060    13.6296 </r>
       <r>     0.3809     0.0002    13.6296 </r>
       <r>     0.4443     0.0008    13.6297 </r>
       <r>     0.5077     0.0175    13.6308 </r>
       <r>     0.5711     0.1855    13.6425 </r>
       <r>     0.6345     0.9310    13.7016 </r>
       <r>     0.6979     2.3232    13.8488 </r>
       <r>     0.7613     3.3055    14.0584 </r>
       <r>     0.8247     3.3663    14.2718 </r>
       <r>     0.8881     2.5152    14.4313 </r>
       <r>     0.9515     1.1051    14.5013 </r>
       <r>     1.0149     0.2477    14.5170 </r>
       <r>     1.0782     0.0711    14.5215 </r>
       <r>     1.1416     0.2903    14.5399 </r>
       <r>     1.2050     0.8626    14.5946 </r>
       <r>     1.2684     1.2179    14.6718 </r>
       <r>     1.3318     0.8929    14.7284 </r>
       <r>     1.3952     0.8894    14.7848 </r>
       <r>     1.4586     2.2307    14.9262 </r>
       <r>     1.5220     3.8406    15.1697 </r>
       <r>     1.5854     4.3369    15.4446 </r>
       <r>     1.6488     5.2426    15.7770 </r>
       <r>     1.7122     6.6170    16.1965 </r>
       <r>     1.7756     6.2969    16.5957 </r>
       <r>     1.8390     4.5209    16.8823 </r>
       <r>     1.9024     2.9916    17.0719 </r>
       <r>     1.9658     2.7102    17.2437 </r>
       <r>     2.0292     2.4711    17.4004 </r>
       <r>     2.0926     2.0698    17.5316 </r>
       <r>     2.1560     3.6732    17.7645 </r>
       <r>     2.2194     6.6188    18.1841 </r>
       <r>     2.2828     7.3207    18.6482 </r>
       <r>     2.3461     5.4893    18.9962 </r>
       <r>     2.4095     4.0445    19.2526 </r>
       <r>     2.4729     3.6776    19.4857 </r>
       <r>     2.5363     3.4349    19.7035 </r>
       <r>     2.5997     2.9301    19.8892 </r>
       <r>     2.6631     3.4096    20.1054 </r>
       <r>     2.7265     5.9295    20.4813 </r>
       <r>     2.7899     7.9371    20.9845 </r>
       <r>     2.8533     7.2151    21.4419 </r>
       <r>     2.9167     4.8354    21.7484 </r>
       <r>     2.9801     3.5745    21.9750 </r>
       <r>     3.0435     5.3234    22.3125 </r>
       <r>     3.1069     7.9696    22.8177 </r>
       <r>     3.1703     7.7152    23.3068 </r>
       <r>     3.2337     6.3905    23.7119 </r>
       <r>     3.2971     6.2640    24.1091 </r>
       <r>     3.3605     5.0823    24.4312 </r>
       <r>     3.4239     3.6303    24.6614 </r>
       <r>     3.4873     4.9241    24.9736 </r>
       <r>     3.5507     6.9627    25.4150 </r>
       <r>     3.6141     5.7284    25.7781 </r>
       <r>     3.6774     3.4695    25.9981 </r>
       <r>     3.7408     3.8882    26.2445 </r>
       <r>     3.8042     5.4360    26.5892 </r>
       <r>     3.8676     5.6983    26.9504 </r>
       <r>     3.9310     5.0239    27.2689 </r>
       <r>     3.9944     4.9855    27.5850 </r>
       <r>     4.0578     6.1423    27.9743 </r>
       <r>     4.1212     7.2260    28.4324 </r>
       <r>     4.1846     6.3496    28.8350 </r>
       <r>     4.2480     4.5010    29.1203 </r>
       <r>     4.3114     4.2094    29.3872 </r>
       <r>     4.3748     4.2796    29.6585 </r>
       <r>     4.4382     3.1305    29.8569 </r>
       <r>     4.5016     1.8376    29.9734 </r>
       <r>     4.5650     1.5415    30.0712 </r>
       <r>     4.6284     2.5839    30.2350 </r>
       <r>     4.6918     4.4091    30.5145 </r>
       <r>     4.7552     4.6758    30.8109 </r>
       <r>     4.8186     3.4121    31.0272 </r>
       <r>     4.8820     2.6859    31.1975 </r>
       <r>     4.9454     2.2408    31.3395 </r>
       <r>     5.0087     1.6550    31.4445 </r>
       <r>     5.0721     1.4265    31.5349 </r>
       <r>     5.1355     1.0482    31.6013 </r>
       <r>     5.1989     0.5961    31.6391 </r>
       <r>     5.2623     0.7894    31.6892 </r>
       <r>     5.3257     1.2117    31.7660 </r>
       <r>     5.3891     1.0208    31.8307 </r>
       <r>     5.4525     0.6951    31.8748 </r>
       <r>     5.5159     0.7952    31.9252 </r>
       <r>     5.5793     0.7433    31.9723 </r>
       <r>     5.6427     0.3503    31.9945 </r>
       <r>     5.7061     0.0780    31.9995 </r>
       <r>     5.7695     0.0081    32.0000 </r>
       <r>     5.8329     0.0004    32.0000 </r>
       <r>     5.8963     0.0000    32.0000 </r>
       <r>     5.9597     0.0000    32.0000 </r>
       <r>     6.0231     0.0000    32.0000 </r>
       <r>     6.0865     0.0000    32.0000 </r>
       <r>     6.1499     0.0000    32.0000 </r>
       <r>     6.2133     0.0005    32.0000 </r>
       <r>     6.2766     0.0102    32.0007 </r>
       <r>     6.3400     0.1039    32.0073 </r>
       <r>     6.4034     0.5073    32.0394 </r>
       <r>     6.4668     1.2560    32.1190 </r>
       <r>     6.5302     1.7983    32.2330 </r>
       <r>     6.5936     1.7404    32.3434 </r>
       <r>     6.6570     1.1166    32.4142 </r>
       <r>     6.7204     0.4307    32.4415 </r>
       <r>     6.7838     0.3273    32.4622 </r>
       <r>     6.8472     1.0750    32.5304 </r>
       <r>     6.9106     2.2776    32.6748 </r>
       <r>     6.9740     2.7295    32.8478 </r>
       <r>     7.0374     2.3249    32.9952 </r>
       <r>     7.1008     2.1562    33.1319 </r>
       <r>     7.1642     3.1658    33.3326 </r>
       <r>     7.2276     4.2100    33.5995 </r>
       <r>     7.2910     3.4769    33.8199 </r>
       <r>     7.3544     3.0560    34.0136 </r>
       <r>     7.4178     3.8036    34.2548 </r>
       <r>     7.4812     3.4187    34.4715 </r>
       <r>     7.5446     2.6338    34.6384 </r>
       <r>     7.6079     3.2363    34.8436 </r>
       <r>     7.6713     4.7694    35.1460 </r>
       <r>     7.7347     6.3636    35.5494 </r>
       <r>     7.7981     8.0417    36.0592 </r>
       <r>     7.8615     8.1562    36.5763 </r>
       <r>     7.9249     6.0625    36.9606 </r>
       <r>     7.9883     4.5179    37.2470 </r>
       <r>     8.0517     3.8547    37.4914 </r>
       <r>     8.1151     2.9484    37.6783 </r>
       <r>     8.1785     3.3213    37.8888 </r>
       <r>     8.2419     6.0818    38.2744 </r>
       <r>     8.3053     8.2130    38.7951 </r>
       <r>     8.3687     7.3444    39.2607 </r>
       <r>     8.4321     5.3055    39.5970 </r>
       <r>     8.4955     3.6131    39.8261 </r>
       <r>     8.5589     2.9603    40.0137 </r>
       <r>     8.6223     4.6989    40.3116 </r>
       <r>     8.6857     6.9314    40.7510 </r>
       <r>     8.7491     6.7177    41.1769 </r>
       <r>     8.8125     6.4036    41.5829 </r>
       <r>     8.8759     8.0031    42.0902 </r>
       <r>     8.9392     8.0940    42.6033 </r>
       <r>     9.0026     5.5806    42.9571 </r>
       <r>     9.0660     4.1592    43.2208 </r>
       <r>     9.1294     5.3876    43.5623 </r>
       <r>     9.1928     7.0213    44.0075 </r>
       <r>     9.2562     7.5789    44.4879 </r>
       <r>     9.3196     7.0360    44.9340 </r>
       <r>     9.3830     6.5552    45.3495 </r>
       <r>     9.4464     6.4029    45.7555 </r>
       <r>     9.5098     5.4621    46.1017 </r>
       <r>     9.5732     4.8743    46.4107 </r>
       <r>     9.6366     4.8657    46.7192 </r>
       <r>     9.7000     4.6606    47.0147 </r>
       <r>     9.7634     4.6181    47.3074 </r>
       <r>     9.8268     4.9172    47.6191 </r>
       <r>     9.8902     4.8796    47.9285 </r>
       <r>     9.9536     4.1857    48.1938 </r>
       <r>    10.0170     3.0867    48.3895 </r>
       <r>    10.0804     2.6686    48.5587 </r>
       <r>    10.1438     4.1090    48.8192 </r>
       <r>    10.2071     5.6592    49.1780 </r>
       <r>    10.2705     4.7804    49.4810 </r>
       <r>    10.3339     2.7488    49.6553 </r>
       <r>    10.3973     1.3483    49.7407 </r>
       <r>    10.4607     0.4813    49.7713 </r>
       <r>    10.5241     0.0936    49.7772 </r>
       <r>    10.5875     0.0088    49.7778 </r>
       <r>    10.6509     0.0006    49.7778 </r>
       <r>    10.7143     0.0064    49.7782 </r>
       <r>    10.7777     0.0739    49.7829 </r>
       <r>    10.8411     0.3957    49.8080 </r>
       <r>    10.9045     0.9951    49.8711 </r>
       <r>    10.9679     1.1792    49.9458 </r>
       <r>    11.0313     0.6590    49.9876 </r>
       <r>    11.0947     0.1732    49.9986 </r>
       <r>    11.1581     0.0213    49.9999 </r>
       <r>    11.2215     0.0012    50.0000 </r>
       <r>    11.2849     0.0000    50.0000 </r>
       <r>    11.3483     0.0000    50.0000 </r>
       <r>    11.4117     0.0000    50.0000 </r>
       <r>    11.4751     0.0000    50.0000 </r>
       <r>    11.5384     0.0000    50.0000 </r>
       <r>    11.6018     0.0000    50.0000 </r>
       <r>    11.6652     0.0000    50.0000 </r>
       <r>    11.7286     0.0000    50.0000 </r>
       <r>    11.7920     0.0000    50.0000 </r>
       <r>    11.8554     0.0000    50.0000 </r>
       <r>    11.9188     0.0000    50.0000 </r>
      </set>
     </set>
    </array>
   </total>
  </dos>
 </calculation>
 <structure name="finalpos" >
  <crystal>
   <varray name="basis" >
    <v>       5.46376904       0.00000000      -0.00000000 </v>
    <v>      -0.00000000       5.46376904      -0.00000000 </v>
    <v>      -0.00000000       0.00000000       5.46376904 </v>
   </varray>
   <i name="volume">    163.10865193 </i>
   <varray name="rec_basis" >
    <v>       0.18302384       0.00000000       0.00000000 </v>
    <v>      -0.00000000       0.18302384      -0.00000000 </v>
    <v>       0.00000000       0.00000000       0.18302384 </v>
   </varray>
  </crystal>
  <varray name="positions" >
   <v>       0.00000000      -0.00000000      -0.00000000 </v>
   <v>       0.00000000       0.50000000       0.50000000 </v>
   <v>       0.50000000      -0.00000000       0.50000000 </v>
   <v>       0.50000000       0.50000000      -0.00000000 </v>
   <v>       0.25000000       0.25000000       0.25000000 </v>
   <v>       0.75000000       0.75000000       0.25000000 </v>
   <v>       0.75000000       0.25000000       0.75000000 </v>
   <v>       0.25000000       0.75000000       0.75000000 </v>
  </varray>
 </structure>
</modeling>
