   8   8   0   0
  0.2002393E+02  0.5431000E-09  0.5431000E-09  0.5431000E-09  0.1000000E-14
  1.000000000000000E-004
  CAR 
 diamond Si                              
     11.85060140     -7.19983736  301      5.91540474      1.00000000
     -7.200  0.0000E+00  0.0000E+00
     -7.136  0.0000E+00  0.0000E+00
     -7.073  0.0000E+00  0.0000E+00
     -7.009  0.0000E+00  0.0000E+00
     -6.946  0.0000E+00  0.0000E+00
     -6.882  0.0000E+00  0.0000E+00
     -6.819  0.0000E+00  0.0000E+00
     -6.755  0.6130E-17  0.3893E-18
     -6.692  0.5249E-14  0.3337E-15
     -6.628  0.2233E-11  0.1421E-12
     -6.565  0.4478E-09  0.2858E-10
     -6.501  0.4312E-07  0.2767E-08
     -6.438  0.2037E-05  0.1321E-06
     -6.374  0.4835E-04  0.3202E-05
     -6.311  0.5908E-03  0.4072E-04
     -6.247  0.3824E-02  0.2836E-03
     -6.184  0.1377E-01  0.1158E-02
     -6.120  0.3062E-01  0.3102E-02
     -6.057  0.4951E-01  0.6246E-02
     -5.993  0.6485E-01  0.1036E-01
     -5.930  0.7458E-01  0.1510E-01
     -5.866  0.8718E-01  0.2064E-01
     -5.803  0.9927E-01  0.2694E-01
     -5.739  0.1048E+00  0.3359E-01
     -5.676  0.1076E+00  0.4043E-01
     -5.612  0.1173E+00  0.4787E-01
     -5.549  0.1363E+00  0.5653E-01
     -5.485  0.1435E+00  0.6564E-01
     -5.422  0.1336E+00  0.7413E-01
     -5.358  0.1321E+00  0.8252E-01
     -5.295  0.1578E+00  0.9254E-01
     -5.231  0.1788E+00  0.1039E+00
     -5.168  0.1755E+00  0.1150E+00
     -5.104  0.1652E+00  0.1255E+00
     -5.041  0.1723E+00  0.1365E+00
     -4.977  0.1842E+00  0.1482E+00
     -4.914  0.1857E+00  0.1600E+00
     -4.850  0.1998E+00  0.1726E+00
     -4.787  0.2282E+00  0.1871E+00
     -4.723  0.2340E+00  0.2020E+00
     -4.660  0.2133E+00  0.2155E+00
     -4.596  0.1988E+00  0.2282E+00
     -4.533  0.2062E+00  0.2413E+00
     -4.469  0.2402E+00  0.2565E+00
     -4.406  0.2848E+00  0.2746E+00
     -4.342  0.2904E+00  0.2930E+00
     -4.279  0.2602E+00  0.3096E+00
     -4.215  0.2625E+00  0.3262E+00
     -4.152  0.2908E+00  0.3447E+00
     -4.088  0.2973E+00  0.3636E+00
     -4.025  0.3057E+00  0.3830E+00
     -3.961  0.3343E+00  0.4042E+00
     -3.898  0.3687E+00  0.4276E+00
     -3.834  0.4196E+00  0.4543E+00
     -3.771  0.4521E+00  0.4830E+00
     -3.707  0.3960E+00  0.5081E+00
     -3.644  0.3137E+00  0.5281E+00
     -3.580  0.3309E+00  0.5491E+00
     -3.517  0.3754E+00  0.5729E+00
     -3.453  0.3331E+00  0.5941E+00
     -3.390  0.2935E+00  0.6127E+00
     -3.326  0.3096E+00  0.6324E+00
     -3.263  0.3382E+00  0.6538E+00
     -3.199  0.3719E+00  0.6774E+00
     -3.136  0.3632E+00  0.7005E+00
     -3.072  0.2916E+00  0.7190E+00
     -3.009  0.2104E+00  0.7324E+00
     -2.945  0.1716E+00  0.7433E+00
     -2.882  0.1720E+00  0.7542E+00
     -2.818  0.2095E+00  0.7675E+00
     -2.755  0.2850E+00  0.7856E+00
     -2.691  0.3253E+00  0.8063E+00
     -2.628  0.2871E+00  0.8245E+00
     -2.564  0.2209E+00  0.8385E+00
     -2.501  0.1517E+00  0.8481E+00
     -2.437  0.9868E-01  0.8544E+00
     -2.374  0.7843E-01  0.8594E+00
     -2.310  0.7829E-01  0.8644E+00
     -2.247  0.8662E-01  0.8699E+00
     -2.183  0.9456E-01  0.8759E+00
     -2.120  0.1037E+00  0.8825E+00
     -2.056  0.1161E+00  0.8898E+00
     -1.993  0.1172E+00  0.8973E+00
     -1.929  0.9400E-01  0.9032E+00
     -1.866  0.6502E-01  0.9074E+00
     -1.802  0.5169E-01  0.9107E+00
     -1.739  0.5021E-01  0.9138E+00
     -1.675  0.5645E-01  0.9174E+00
     -1.612  0.6571E-01  0.9216E+00
     -1.548  0.9931E-01  0.9279E+00
     -1.485  0.2213E+00  0.9420E+00
     -1.421  0.3840E+00  0.9663E+00
     -1.358  0.3981E+00  0.9916E+00
     -1.294  0.2913E+00  0.1010E+01
     -1.231  0.2641E+00  0.1027E+01
     -1.167  0.3687E+00  0.1050E+01
     -1.104  0.5245E+00  0.1084E+01
     -1.040  0.6078E+00  0.1122E+01
     -0.977  0.5951E+00  0.1160E+01
     -0.913  0.5145E+00  0.1193E+01
     -0.850  0.4076E+00  0.1219E+01
     -0.786  0.4132E+00  0.1245E+01
     -0.723  0.4803E+00  0.1275E+01
     -0.659  0.4068E+00  0.1301E+01
     -0.596  0.2366E+00  0.1316E+01
     -0.532  0.1769E+00  0.1327E+01
     -0.469  0.2481E+00  0.1343E+01
     -0.405  0.3182E+00  0.1363E+01
     -0.342  0.2870E+00  0.1382E+01
     -0.278  0.2029E+00  0.1394E+01
     -0.215  0.1504E+00  0.1404E+01
     -0.151  0.1536E+00  0.1414E+01
     -0.088  0.2471E+00  0.1429E+01
     -0.024  0.3403E+00  0.1451E+01
      0.039  0.2924E+00  0.1470E+01
      0.103  0.1688E+00  0.1480E+01
      0.166  0.9287E-01  0.1486E+01
      0.230  0.8732E-01  0.1492E+01
      0.293  0.1339E+00  0.1500E+01
      0.357  0.2100E+00  0.1514E+01
      0.420  0.2365E+00  0.1529E+01
      0.484  0.1680E+00  0.1539E+01
      0.547  0.1098E+00  0.1546E+01
      0.611  0.9398E-01  0.1552E+01
      0.674  0.8316E-01  0.1558E+01
      0.738  0.1108E+00  0.1565E+01
      0.801  0.1903E+00  0.1577E+01
      0.865  0.2268E+00  0.1591E+01
      0.928  0.1600E+00  0.1601E+01
      0.992  0.7912E-01  0.1606E+01
      1.055  0.4917E-01  0.1609E+01
      1.119  0.5271E-01  0.1613E+01
      1.182  0.6825E-01  0.1617E+01
      1.246  0.1079E+00  0.1624E+01
      1.309  0.1948E+00  0.1636E+01
      1.373  0.2688E+00  0.1653E+01
      1.436  0.3079E+00  0.1673E+01
      1.500  0.3818E+00  0.1697E+01
      1.563  0.4624E+00  0.1726E+01
      1.627  0.4797E+00  0.1757E+01
      1.690  0.4576E+00  0.1786E+01
      1.754  0.4875E+00  0.1817E+01
      1.817  0.5693E+00  0.1853E+01
      1.881  0.5881E+00  0.1890E+01
      1.944  0.5122E+00  0.1923E+01
      2.008  0.4239E+00  0.1950E+01
      2.071  0.3736E+00  0.1974E+01
      2.135  0.3954E+00  0.1999E+01
      2.198  0.4714E+00  0.2029E+01
      2.262  0.5153E+00  0.2061E+01
      2.325  0.5157E+00  0.2094E+01
      2.389  0.5241E+00  0.2127E+01
      2.452  0.5273E+00  0.2161E+01
      2.516  0.5157E+00  0.2194E+01
      2.579  0.5038E+00  0.2226E+01
      2.643  0.4829E+00  0.2256E+01
      2.706  0.5113E+00  0.2289E+01
      2.770  0.6049E+00  0.2327E+01
      2.833  0.6869E+00  0.2371E+01
      2.897  0.7191E+00  0.2416E+01
      2.960  0.6977E+00  0.2461E+01
      3.024  0.6776E+00  0.2504E+01
      3.087  0.6731E+00  0.2547E+01
      3.151  0.6434E+00  0.2587E+01
      3.214  0.5973E+00  0.2625E+01
      3.278  0.5880E+00  0.2663E+01
      3.341  0.6620E+00  0.2705E+01
      3.405  0.7393E+00  0.2752E+01
      3.468  0.6848E+00  0.2795E+01
      3.532  0.5510E+00  0.2830E+01
      3.595  0.4953E+00  0.2862E+01
      3.659  0.5621E+00  0.2897E+01
      3.722  0.6373E+00  0.2938E+01
      3.786  0.6510E+00  0.2979E+01
      3.849  0.6062E+00  0.3018E+01
      3.913  0.5458E+00  0.3052E+01
      3.976  0.5201E+00  0.3085E+01
      4.040  0.4972E+00  0.3117E+01
      4.103  0.5143E+00  0.3150E+01
      4.167  0.5994E+00  0.3188E+01
      4.230  0.6227E+00  0.3227E+01
      4.294  0.5335E+00  0.3261E+01
      4.357  0.4344E+00  0.3289E+01
      4.421  0.4018E+00  0.3314E+01
      4.484  0.4417E+00  0.3342E+01
      4.548  0.4786E+00  0.3373E+01
      4.611  0.4081E+00  0.3398E+01
      4.675  0.2923E+00  0.3417E+01
      4.738  0.2382E+00  0.3432E+01
      4.802  0.2325E+00  0.3447E+01
      4.865  0.2264E+00  0.3461E+01
      4.929  0.2313E+00  0.3476E+01
      4.992  0.2285E+00  0.3490E+01
      5.056  0.1810E+00  0.3502E+01
      5.119  0.1428E+00  0.3511E+01
      5.183  0.1366E+00  0.3520E+01
      5.246  0.1214E+00  0.3527E+01
      5.310  0.1067E+00  0.3534E+01
      5.373  0.1051E+00  0.3541E+01
      5.437  0.9350E-01  0.3547E+01
      5.500  0.6593E-01  0.3551E+01
      5.564  0.3853E-01  0.3553E+01
      5.627  0.2082E-01  0.3555E+01
      5.691  0.9345E-02  0.3555E+01
      5.754  0.2577E-02  0.3556E+01
      5.818  0.3682E-03  0.3556E+01
      5.881  0.2583E-04  0.3556E+01
      5.945  0.1553E-05  0.3556E+01
      6.008  0.2141E-04  0.3556E+01
      6.072  0.3203E-03  0.3556E+01
      6.135  0.2325E-02  0.3556E+01
      6.199  0.8473E-02  0.3556E+01
      6.262  0.1731E-01  0.3557E+01
      6.326  0.2964E-01  0.3559E+01
      6.389  0.6403E-01  0.3563E+01
      6.453  0.1170E+00  0.3571E+01
      6.516  0.1411E+00  0.3580E+01
      6.580  0.1382E+00  0.3588E+01
      6.643  0.1514E+00  0.3598E+01
      6.707  0.1773E+00  0.3609E+01
      6.770  0.1900E+00  0.3621E+01
      6.834  0.1802E+00  0.3633E+01
      6.897  0.1913E+00  0.3645E+01
      6.961  0.2655E+00  0.3662E+01
      7.024  0.3229E+00  0.3682E+01
      7.088  0.3124E+00  0.3702E+01
      7.151  0.2793E+00  0.3720E+01
      7.215  0.2818E+00  0.3738E+01
      7.278  0.3602E+00  0.3761E+01
      7.342  0.4315E+00  0.3788E+01
      7.405  0.4235E+00  0.3815E+01
      7.469  0.3974E+00  0.3840E+01
      7.533  0.4215E+00  0.3867E+01
      7.596  0.4756E+00  0.3897E+01
      7.660  0.5355E+00  0.3931E+01
      7.723  0.6261E+00  0.3971E+01
      7.787  0.7066E+00  0.4016E+01
      7.850  0.7396E+00  0.4063E+01
      7.914  0.7687E+00  0.4112E+01
      7.977  0.7607E+00  0.4160E+01
      8.041  0.6579E+00  0.4202E+01
      8.104  0.5769E+00  0.4238E+01
      8.168  0.6105E+00  0.4277E+01
      8.231  0.6480E+00  0.4318E+01
      8.295  0.5703E+00  0.4354E+01
      8.358  0.4694E+00  0.4384E+01
      8.422  0.4747E+00  0.4414E+01
      8.485  0.5245E+00  0.4448E+01
      8.549  0.5436E+00  0.4482E+01
      8.612  0.5471E+00  0.4517E+01
      8.676  0.5366E+00  0.4551E+01
      8.739  0.5026E+00  0.4583E+01
      8.803  0.5629E+00  0.4619E+01
      8.866  0.7977E+00  0.4669E+01
      8.930  0.1004E+01  0.4733E+01
      8.993  0.9666E+00  0.4795E+01
      9.057  0.7950E+00  0.4845E+01
      9.120  0.6837E+00  0.4888E+01
      9.184  0.6665E+00  0.4931E+01
      9.247  0.7117E+00  0.4976E+01
      9.311  0.7669E+00  0.5025E+01
      9.374  0.7784E+00  0.5074E+01
      9.438  0.7257E+00  0.5120E+01
      9.501  0.6299E+00  0.5160E+01
      9.565  0.5671E+00  0.5196E+01
      9.628  0.5532E+00  0.5231E+01
      9.692  0.5184E+00  0.5264E+01
      9.755  0.4568E+00  0.5293E+01
      9.819  0.3983E+00  0.5318E+01
      9.882  0.3888E+00  0.5343E+01
      9.946  0.4233E+00  0.5370E+01
     10.009  0.4432E+00  0.5398E+01
     10.073  0.4171E+00  0.5425E+01
     10.136  0.3822E+00  0.5449E+01
     10.200  0.3974E+00  0.5474E+01
     10.263  0.3985E+00  0.5499E+01
     10.327  0.3015E+00  0.5519E+01
     10.390  0.1889E+00  0.5531E+01
     10.454  0.1223E+00  0.5538E+01
     10.517  0.8600E-01  0.5544E+01
     10.581  0.6219E-01  0.5548E+01
     10.644  0.4241E-01  0.5551E+01
     10.708  0.2815E-01  0.5552E+01
     10.771  0.2012E-01  0.5554E+01
     10.835  0.1599E-01  0.5555E+01
     10.898  0.1017E-01  0.5555E+01
     10.962  0.4078E-02  0.5555E+01
     11.025  0.9181E-03  0.5556E+01
     11.089  0.1063E-03  0.5556E+01
     11.152  0.5977E-05  0.5556E+01
     11.216  0.1578E-06  0.5556E+01
     11.279  0.1925E-08  0.5556E+01
     11.343  0.1074E-10  0.5556E+01
     11.406  0.2725E-13  0.5556E+01
     11.470  0.3153E-16  0.5556E+01
     11.533  0.0000E+00  0.5556E+01
     11.597  0.0000E+00  0.5556E+01
     11.660  0.0000E+00  0.5556E+01
     11.724  0.0000E+00  0.5556E+01
     11.787  0.0000E+00  0.5556E+01
     11.851  0.0000E+00  0.5556E+01
