       N       E                     dE             d eps       ncg     rms          rms(c)
DAV:   1     0.635527831010E+02    0.63553E+02   -0.12023E+04  2800   0.101E+03
DAV:   2    -0.394974856129E+02   -0.10305E+03   -0.99115E+02  3610   0.145E+02
DAV:   3    -0.440459783243E+02   -0.45485E+01   -0.45126E+01  3695   0.290E+01    0.104E+01
DAV:   4    -0.436052855931E+02    0.44069E+00   -0.67799E-01  3730   0.426E+00    0.582E+00
DAV:   5    -0.433717241380E+02    0.23356E+00   -0.46272E-01  3345   0.274E+00    0.494E-01
DAV:   6    -0.433773768054E+02   -0.56527E-02   -0.19677E-02  3745   0.652E-01    0.244E-01
DAV:   7    -0.433796931073E+02   -0.23163E-02   -0.46921E-03  3160   0.295E-01    0.101E-01
DAV:   8    -0.433797091027E+02   -0.15995E-04   -0.14410E-04  2945   0.600E-02
   1 F= -.43379709E+02 E0= -.43379709E+02  d E =-.433797E+02
       N       E                     dE             d eps       ncg     rms          rms(c)
DAV:   1    -0.433958430156E+02   -0.16150E-01   -0.33255E+00  3195   0.731E+00
DAV:   2    -0.434035544009E+02   -0.77114E-02   -0.77113E-02  3595   0.123E+00
DAV:   3    -0.434036411595E+02   -0.86759E-04   -0.86759E-04  3650   0.161E-01    0.219E+00
DAV:   4    -0.433306313761E+02    0.73010E-01   -0.35193E-02  2885   0.669E-01    0.110E+00
DAV:   5    -0.432942835156E+02    0.36348E-01   -0.53983E-02  3280   0.842E-01    0.317E-01
DAV:   6    -0.432940958856E+02    0.18763E-03   -0.28079E-03  3320   0.250E-01    0.117E-01
DAV:   7    -0.432940145158E+02    0.81370E-04   -0.30224E-04  3270   0.664E-02
   2 F= -.43294015E+02 E0= -.43294015E+02  d E =0.856946E-01
       N       E                     dE             d eps       ncg     rms          rms(c)
DAV:   1    -0.434489962773E+02   -0.15490E+00   -0.16939E+00  3185   0.535E+00
DAV:   2    -0.434537892045E+02   -0.47929E-02   -0.47929E-02  3560   0.909E-01
DAV:   3    -0.434538254521E+02   -0.36248E-04   -0.36248E-04  3435   0.108E-01    0.157E+00
DAV:   4    -0.434174197799E+02    0.36406E-01   -0.17395E-02  2830   0.476E-01    0.769E-01
DAV:   5    -0.433994878136E+02    0.17932E-01   -0.26215E-02  3180   0.594E-01    0.247E-01
DAV:   6    -0.433994727753E+02    0.15038E-04   -0.13901E-03  3375   0.180E-01    0.100E-01
DAV:   7    -0.433993978603E+02    0.74915E-04   -0.12326E-04  2205   0.448E-02
   3 F= -.43399398E+02 E0= -.43399398E+02  d E =-.196888E-01
