 vasp.5.4.1 05Feb16 (build Feb 24 2020 14:33:01) complex                        
  
 executed on           IFC91_ompi date 2020.02.27  23:40:03
 running on   40 total cores
 distrk:  each k-point on   40 cores,    1 groups
 distr:  one band on NCORES_PER_BAND=   8 cores,    5 groups


--------------------------------------------------------------------------------------------------------


 INCAR:
 POTCAR:    PAW_PBE Si 05Jan2001                  
 POTCAR:    PAW_PBE Si 05Jan2001                  
   VRHFIN =Si: s2p2                                                             
   LEXCH  = PE                                                                  
   EATOM  =   103.0669 eV,    7.5752 Ry                                         
                                                                                
   TITEL  = PAW_PBE Si 05Jan2001                                                
   LULTRA =        F    use ultrasoft PP ?                                      
   IUNSCR =        1    unscreen: 0-lin 1-nonlin 2-no                           
   RPACOR =    1.500    partial core radius                                     
   POMASS =   28.085; ZVAL   =    4.000    mass and valenz                      
   RCORE  =    1.900    outmost cutoff radius                                   
   RWIGS  =    2.480; RWIGS  =    1.312    wigner-seitz radius (au A)           
   ENMAX  =  245.345; ENMIN  =  184.009 eV                                      
   ICORE  =        2    local potential                                         
   LCOR   =        T    correct aug charges                                     
   LPAW   =        T    paw PP                                                  
   EAUG   =  322.069                                                            
   DEXC   =    0.000                                                            
   RMAX   =    1.950    core radius for proj-oper                               
   RAUG   =    1.300    factor for augmentation sphere                          
   RDEP   =    1.993    radius for radial grids                                 
   RDEPT  =    1.837    core radius for aug-charge                              
                                                                                
   Atomic configuration                                                         
    6 entries                                                                   
     n  l   j            E        occ.                                          
     1  0  0.50     -1785.8828   2.0000                                         
     2  0  0.50      -139.4969   2.0000                                         
     2  1  1.50       -95.5546   6.0000                                         
     3  0  0.50       -10.8127   2.0000                                         
     3  1  0.50        -4.0811   2.0000                                         
     3  2  1.50        -4.0817   0.0000                                         
   Description                                                                  
     l       E           TYP  RCUT    TYP  RCUT                                 
     0    -10.8127223     23  1.900                                             
     0     -7.6451159     23  1.900                                             
     1     -4.0811372     23  1.900                                             
     1      2.4879257     23  1.900                                             
     2     -4.0817478      7  1.900                                             
  local pseudopotential read in
  partial core-charges read in
  partial kinetic energy density read in
  atomic valenz-charges read in
  non local Contribution for L=           0  read in
    real space projection operators read in
  non local Contribution for L=           0  read in
    real space projection operators read in
  non local Contribution for L=           1  read in
    real space projection operators read in
  non local Contribution for L=           1  read in
    real space projection operators read in
    PAW grid and wavefunctions read in
 
   number of l-projection  operators is LMAX  =           4
   number of lm-projection operators is LMMAX =           8
 
  PAW_PBE Si 05Jan2001                  :
 energy of atom  1       EATOM= -103.0669
 kinetic energy error for atom=    0.0006 (will be added to EATOM!!)
 
 
 POSCAR: Si dia                                  
  positions in direct lattice
  No initial velocities read in
 exchange correlation table for  LEXCH =        8
   RHO(1)=    0.500       N(1)  =     2000
   RHO(2)=  100.500       N(2)  =     4000
 


--------------------------------------------------------------------------------------------------------


 ion  position               nearest neighbor table
   1  0.000  0.000  0.000-   5 2.35   6 2.35   7 2.35   8 2.35
   2  0.000  0.500  0.500-   5 2.35   6 2.35   7 2.35   8 2.35
   3  0.500  0.000  0.500-   5 2.35   6 2.35   7 2.35   8 2.35
   4  0.500  0.500  0.000-   5 2.35   6 2.35   7 2.35   8 2.35
   5  0.250  0.250  0.250-   1 2.35   2 2.35   3 2.35   4 2.35
   6  0.750  0.750  0.250-   1 2.35   2 2.35   3 2.35   4 2.35
   7  0.750  0.250  0.750-   1 2.35   2 2.35   3 2.35   4 2.35
   8  0.250  0.750  0.750-   1 2.35   2 2.35   3 2.35   4 2.35
 
  LATTYP: Found a simple cubic cell.
 ALAT       =     5.4310000000
  
  Lattice vectors:
  
 A1 = (   5.4310000000,   0.0000000000,   0.0000000000)
 A2 = (   0.0000000000,   5.4310000000,   0.0000000000)
 A3 = (   0.0000000000,   0.0000000000,   5.4310000000)


Analysis of symmetry for initial positions (statically):
=====================================================================
 Subroutine PRICEL returns following result:
 
  LATTYP: Found a face centered cubic cell.
 ALAT       =     5.4310000000
  
  Lattice vectors:
  
 A1 = (   2.7155000000,   2.7155000000,   0.0000000000)
 A2 = (   2.7155000000,   0.0000000000,  -2.7155000000)
 A3 = (   0.0000000000,   2.7155000000,  -2.7155000000)
 
   4 primitive cells build up your supercell.
 

 Routine SETGRP: Setting up the symmetry group for a 
 simple cubic supercell.


 Subroutine GETGRP returns: Found 48 space group operations
 (whereof 24 operations were pure point group operations)
 out of a pool of 48 trial point group operations.


The static configuration has the point symmetry T_d .
 The point group associated with its full space group is O_h .


Analysis of symmetry for dynamics (positions and initial velocities):
=====================================================================
 Subroutine PRICEL returns following result:
 
  LATTYP: Found a face centered cubic cell.
 ALAT       =     5.4310000000
  
  Lattice vectors:
  
 A1 = (   2.7155000000,   2.7155000000,   0.0000000000)
 A2 = (   2.7155000000,   0.0000000000,  -2.7155000000)
 A3 = (   0.0000000000,   2.7155000000,  -2.7155000000)
 
   4 primitive cells build up your supercell.
 

 Routine SETGRP: Setting up the symmetry group for a 
 simple cubic supercell.


 Subroutine GETGRP returns: Found 48 space group operations
 (whereof 24 operations were pure point group operations)
 out of a pool of 48 trial point group operations.


The dynamic configuration has the point symmetry T_d .
 The point group associated with its full space group is O_h .


 Subroutine INISYM returns: Found 48 space group operations
 (whereof 24 operations are pure point group operations),
 and found     4 'primitive' translations

 
 
 KPOINTS: k-points                                

Automatic generation of k-mesh.
Space group operators:
 irot       det(A)        alpha          n_x          n_y          n_z        tau_x        tau_y        tau_z
    1     1.000000     0.000001     1.000000     0.000000     0.000000     0.000000     0.000000     0.000000
    2     1.000000   120.000000    -0.577350    -0.577350    -0.577350     0.000000     0.000000     0.000000
    3     1.000000   120.000000     0.577350     0.577350     0.577350     0.000000     0.000000     0.000000
    4    -1.000000    90.000000     0.000000     0.000000    -1.000000     0.000000     0.000000     0.000000
    5    -1.000000   180.000000     0.000000     0.707107     0.707107     0.000000     0.000000     0.000000
    6    -1.000000    90.000000     0.000000     1.000000     0.000000     0.000000     0.000000     0.000000
    7     1.000000   180.000000     0.000000     0.000000     1.000000     0.000000     0.000000     0.000000
    8     1.000000   120.000000    -0.577350     0.577350     0.577350     0.000000     0.000000     0.000000
    9     1.000000   120.000000    -0.577350     0.577350    -0.577350     0.000000     0.000000     0.000000
   10    -1.000000    90.000000     0.000000     0.000000     1.000000     0.000000     0.000000     0.000000
   11    -1.000000    90.000000    -1.000000     0.000000     0.000000     0.000000     0.000000     0.000000
   12    -1.000000   180.000000     0.707107     0.000000     0.707107     0.000000     0.000000     0.000000
   13     1.000000   120.000000     0.577350    -0.577350     0.577350     0.000000     0.000000     0.000000
   14     1.000000   120.000000    -0.577350    -0.577350     0.577350     0.000000     0.000000     0.000000
   15     1.000000   180.000000     1.000000     0.000000     0.000000     0.000000     0.000000     0.000000
   16    -1.000000    90.000000     0.000000    -1.000000     0.000000     0.000000     0.000000     0.000000
   17    -1.000000   180.000000     0.707107     0.707107     0.000000     0.000000     0.000000     0.000000
   18    -1.000000    90.000000     1.000000     0.000000     0.000000     0.000000     0.000000     0.000000
   19     1.000000   120.000000     0.577350    -0.577350    -0.577350     0.000000     0.000000     0.000000
   20     1.000000   180.000000     0.000000     1.000000     0.000000     0.000000     0.000000     0.000000
   21     1.000000   120.000000     0.577350     0.577350    -0.577350     0.000000     0.000000     0.000000
   22    -1.000000   180.000000     0.000000    -0.707107     0.707107     0.000000     0.000000     0.000000
   23    -1.000000   180.000000     0.707107    -0.707107     0.000000     0.000000     0.000000     0.000000
   24    -1.000000   180.000000     0.707107     0.000000    -0.707107     0.000000     0.000000     0.000000
   25    -1.000000     0.000001     1.000000     0.000000     0.000000     0.750000     0.750000    -0.750000
   26    -1.000000   120.000000    -0.577350    -0.577350    -0.577350     0.750000     0.750000    -0.750000
   27    -1.000000   120.000000     0.577350     0.577350     0.577350     0.750000     0.750000    -0.750000
   28     1.000000    90.000000     0.000000     0.000000    -1.000000     0.750000     0.750000    -0.750000
   29     1.000000   180.000000     0.000000     0.707107     0.707107     0.750000     0.750000    -0.750000
   30     1.000000    90.000000     0.000000     1.000000     0.000000     0.750000     0.750000    -0.750000
   31    -1.000000   180.000000     0.000000     0.000000     1.000000     0.750000     0.750000    -0.750000
   32    -1.000000   120.000000    -0.577350     0.577350     0.577350     0.750000     0.750000    -0.750000
   33    -1.000000   120.000000    -0.577350     0.577350    -0.577350     0.750000     0.750000    -0.750000
   34     1.000000    90.000000     0.000000     0.000000     1.000000     0.750000     0.750000    -0.750000
   35     1.000000    90.000000    -1.000000     0.000000     0.000000     0.750000     0.750000    -0.750000
   36     1.000000   180.000000     0.707107     0.000000     0.707107     0.750000     0.750000    -0.750000
   37    -1.000000   120.000000     0.577350    -0.577350     0.577350     0.750000     0.750000    -0.750000
   38    -1.000000   120.000000    -0.577350    -0.577350     0.577350     0.750000     0.750000    -0.750000
   39    -1.000000   180.000000     1.000000     0.000000     0.000000     0.750000     0.750000    -0.750000
   40     1.000000    90.000000     0.000000    -1.000000     0.000000     0.750000     0.750000    -0.750000
   41     1.000000   180.000000     0.707107     0.707107     0.000000     0.750000     0.750000    -0.750000
   42     1.000000    90.000000     1.000000     0.000000     0.000000     0.750000     0.750000    -0.750000
   43    -1.000000   120.000000     0.577350    -0.577350    -0.577350     0.750000     0.750000    -0.750000
   44    -1.000000   180.000000     0.000000     1.000000     0.000000     0.750000     0.750000    -0.750000
   45    -1.000000   120.000000     0.577350     0.577350    -0.577350     0.750000     0.750000    -0.750000
   46     1.000000   180.000000     0.000000    -0.707107     0.707107     0.750000     0.750000    -0.750000
   47     1.000000   180.000000     0.707107    -0.707107     0.000000     0.750000     0.750000    -0.750000
   48     1.000000   180.000000     0.707107     0.000000    -0.707107     0.750000     0.750000    -0.750000
 
 Subroutine IBZKPT returns following result:
 ===========================================
 
 Found     56 irreducible k-points:
 
 Following reciprocal coordinates:
            Coordinates               Weight
  0.000000  0.000000  0.000000      1.000000
  0.090909  0.000000  0.000000      6.000000
  0.181818  0.000000  0.000000      6.000000
  0.272727  0.000000  0.000000      6.000000
  0.363636  0.000000  0.000000      6.000000
  0.454545  0.000000  0.000000      6.000000
  0.090909  0.090909  0.000000     12.000000
  0.181818  0.090909  0.000000     24.000000
  0.272727  0.090909  0.000000     24.000000
  0.363636  0.090909  0.000000     24.000000
  0.454545  0.090909  0.000000     24.000000
  0.181818  0.181818  0.000000     12.000000
  0.272727  0.181818  0.000000     24.000000
  0.363636  0.181818  0.000000     24.000000
  0.454545  0.181818  0.000000     24.000000
  0.272727  0.272727  0.000000     12.000000
  0.363636  0.272727  0.000000     24.000000
  0.454545  0.272727  0.000000     24.000000
  0.363636  0.363636  0.000000     12.000000
  0.454545  0.363636  0.000000     24.000000
  0.454545  0.454545  0.000000     12.000000
  0.090909  0.090909  0.090909      8.000000
  0.181818  0.090909  0.090909     24.000000
  0.272727  0.090909  0.090909     24.000000
  0.363636  0.090909  0.090909     24.000000
  0.454545  0.090909  0.090909     24.000000
  0.181818  0.181818  0.090909     24.000000
  0.272727  0.181818  0.090909     48.000000
  0.363636  0.181818  0.090909     48.000000
  0.454545  0.181818  0.090909     48.000000
  0.272727  0.272727  0.090909     24.000000
  0.363636  0.272727  0.090909     48.000000
  0.454545  0.272727  0.090909     48.000000
  0.363636  0.363636  0.090909     24.000000
  0.454545  0.363636  0.090909     48.000000
  0.454545  0.454545  0.090909     24.000000
  0.181818  0.181818  0.181818      8.000000
  0.272727  0.181818  0.181818     24.000000
  0.363636  0.181818  0.181818     24.000000
  0.454545  0.181818  0.181818     24.000000
  0.272727  0.272727  0.181818     24.000000
  0.363636  0.272727  0.181818     48.000000
  0.454545  0.272727  0.181818     48.000000
  0.363636  0.363636  0.181818     24.000000
  0.454545  0.363636  0.181818     48.000000
  0.454545  0.454545  0.181818     24.000000
  0.272727  0.272727  0.272727      8.000000
  0.363636  0.272727  0.272727     24.000000
  0.454545  0.272727  0.272727     24.000000
  0.363636  0.363636  0.272727     24.000000
  0.454545  0.363636  0.272727     48.000000
  0.454545  0.454545  0.272727     24.000000
  0.363636  0.363636  0.363636      8.000000
  0.454545  0.363636  0.363636     24.000000
  0.454545  0.454545  0.363636     24.000000
  0.454545  0.454545  0.454545      8.000000
 
 Following cartesian coordinates:
            Coordinates               Weight
  0.000000  0.000000  0.000000      1.000000
  0.090909  0.000000  0.000000      6.000000
  0.181818  0.000000  0.000000      6.000000
  0.272727  0.000000  0.000000      6.000000
  0.363636  0.000000  0.000000      6.000000
  0.454545  0.000000  0.000000      6.000000
  0.090909  0.090909  0.000000     12.000000
  0.181818  0.090909  0.000000     24.000000
  0.272727  0.090909  0.000000     24.000000
  0.363636  0.090909  0.000000     24.000000
  0.454545  0.090909  0.000000     24.000000
  0.181818  0.181818  0.000000     12.000000
  0.272727  0.181818  0.000000     24.000000
  0.363636  0.181818  0.000000     24.000000
  0.454545  0.181818  0.000000     24.000000
  0.272727  0.272727  0.000000     12.000000
  0.363636  0.272727  0.000000     24.000000
  0.454545  0.272727  0.000000     24.000000
  0.363636  0.363636  0.000000     12.000000
  0.454545  0.363636  0.000000     24.000000
  0.454545  0.454545  0.000000     12.000000
  0.090909  0.090909  0.090909      8.000000
  0.181818  0.090909  0.090909     24.000000
  0.272727  0.090909  0.090909     24.000000
  0.363636  0.090909  0.090909     24.000000
  0.454545  0.090909  0.090909     24.000000
  0.181818  0.181818  0.090909     24.000000
  0.272727  0.181818  0.090909     48.000000
  0.363636  0.181818  0.090909     48.000000
  0.454545  0.181818  0.090909     48.000000
  0.272727  0.272727  0.090909     24.000000
  0.363636  0.272727  0.090909     48.000000
  0.454545  0.272727  0.090909     48.000000
  0.363636  0.363636  0.090909     24.000000
  0.454545  0.363636  0.090909     48.000000
  0.454545  0.454545  0.090909     24.000000
  0.181818  0.181818  0.181818      8.000000
  0.272727  0.181818  0.181818     24.000000
  0.363636  0.181818  0.181818     24.000000
  0.454545  0.181818  0.181818     24.000000
  0.272727  0.272727  0.181818     24.000000
  0.363636  0.272727  0.181818     48.000000
  0.454545  0.272727  0.181818     48.000000
  0.363636  0.363636  0.181818     24.000000
  0.454545  0.363636  0.181818     48.000000
  0.454545  0.454545  0.181818     24.000000
  0.272727  0.272727  0.272727      8.000000
  0.363636  0.272727  0.272727     24.000000
  0.454545  0.272727  0.272727     24.000000
  0.363636  0.363636  0.272727     24.000000
  0.454545  0.363636  0.272727     48.000000
  0.454545  0.454545  0.272727     24.000000
  0.363636  0.363636  0.363636      8.000000
  0.454545  0.363636  0.363636     24.000000
  0.454545  0.454545  0.363636     24.000000
  0.454545  0.454545  0.454545      8.000000
 


--------------------------------------------------------------------------------------------------------




 Dimension of arrays:
   k-points           NKPTS =     56   k-points in BZ     NKDIM =     56   number of bands    NBANDS=     25
   number of dos      NEDOS =    301   number of ions     NIONS =      8
   non local maximal  LDIM  =      4   non local SUM 2l+1 LMDIM =      8
   total plane-waves  NPLWV =  64000
   max r-space proj   IRMAX =      1   max aug-charges    IRDMAX=  13556
   dimension x,y,z NGX =    40 NGY =   40 NGZ =   40
   dimension x,y,z NGXF=    80 NGYF=   80 NGZF=   80
   support grid    NGXF=    80 NGYF=   80 NGZF=   80
   ions per type =               8
 NGX,Y,Z   is equivalent  to a cutoff of  12.24, 12.24, 12.24 a.u.
 NGXF,Y,Z  is equivalent  to a cutoff of  24.49, 24.49, 24.49 a.u.


 I would recommend the setting:
   dimension x,y,z NGX =    40 NGY =   40 NGZ =   40
 SYSTEM =  diamond Si                              
 POSCAR =  Si dia                                  

 Startparameter for this run:
   NWRITE =      2    write-flag & timer
   PREC   = accura    normal or accurate (medium, high low for compatibility)
   ISTART =      0    job   : 0-new  1-cont  2-samecut
   ICHARG =      2    charge: 1-file 2-atom 10-const
   ISPIN  =      1    spin polarized calculation?
   LNONCOLLINEAR =      F non collinear calculations
   LSORBIT =      F    spin-orbit coupling
   INIWAV =      1    electr: 0-lowe 1-rand  2-diag
   LASPH  =      F    aspherical Exc in radial PAW
   METAGGA=      F    non-selfconsistent MetaGGA calc.

 Electronic Relaxation 1
   ENCUT  =  500.0 eV  36.75 Ry    6.06 a.u.   9.90  9.90  9.90*2*pi/ulx,y,z
   ENINI  =  500.0     initial cutoff
   ENAUG  =  322.1 eV  augmentation charge cutoff
   NELM   =     60;   NELMIN=  0; NELMDL=  3     # of ELM steps 
   EDIFF  = 0.1E-03   stopping-criterion for ELM
   LREAL  =      F    real-space projection
   NLSPLINE    = F    spline interpolate recip. space projectors
   LCOMPAT=      F    compatible to vasp.4.4
   GGA_COMPAT  = T    GGA compatible to vasp.4.4-vasp.4.6
   LMAXPAW     = -100 max onsite density
   LMAXMIX     =    2 max onsite mixed and CHGCAR
   VOSKOWN=      0    Vosko Wilk Nusair interpolation
   ROPT   =    0.00000
 Ionic relaxation
   EDIFFG = -.1E-01   stopping-criterion for IOM
   NSW    =      9    number of steps for IOM
   NBLOCK =      1;   KBLOCK =      9    inner block; outer block 
   IBRION =      2    ionic relax: 0-MD 1-quasi-New 2-CG
   NFREE  =      1    steps in history (QN), initial steepest desc. (CG)
   ISIF   =      3    stress and relaxation
   IWAVPR =     11    prediction:  0-non 1-charg 2-wave 3-comb
   ISYM   =      2    0-nonsym 1-usesym 2-fastsym
   LCORR  =      T    Harris-Foulkes like correction to forces

   POTIM  = 1.0000    time-step for ionic-motion
   TEIN   =    0.0    initial temperature
   TEBEG  =    0.0;   TEEND  =   0.0 temperature during run
   SMASS  =  -3.00    Nose mass-parameter (am)
   estimated Nose-frequenzy (Omega)   =  0.10E-29 period in steps =****** mass=  -0.674E-27a.u.
   SCALEE = 1.0000    scale energy and forces
   NPACO  =    256;   APACO  = 16.0  distance and # of slots for P.C.
   PSTRESS=    0.0 pullay stress

  Mass of Ions in am
   POMASS =  28.09
  Ionic Valenz
   ZVAL   =   4.00
  Atomic Wigner-Seitz radii
   RWIGS  =  -1.00
  virtual crystal weights 
   VCA    =   1.00
   NELECT =      32.0000    total number of electrons
   NUPDOWN=      -1.0000    fix difference up-down

 DOS related values:
   EMIN   =  10.00;   EMAX   =-10.00  energy-range for DOS
   EFERMI =   0.00
   ISMEAR =     0;   SIGMA  =   0.10  broadening in eV -4-tet -1-fermi 0-gaus

 Electronic relaxation 2 (details)
   IALGO  =     38    algorithm
   LDIAG  =      T    sub-space diagonalisation (order eigenvalues)
   LSUBROT=      F    optimize rotation matrix (better conditioning)
   TURBO    =      0    0=normal 1=particle mesh
   IRESTART =      0    0=no restart 2=restart with 2 vectors
   NREBOOT  =      0    no. of reboots
   NMIN     =      0    reboot dimension
   EREF     =   0.00    reference energy to select bands
   IMIX   =      4    mixing-type and parameters
     AMIX     =   0.40;   BMIX     =  1.00
     AMIX_MAG =   1.60;   BMIX_MAG =  1.00
     AMIN     =   0.10
     WC   =   100.;   INIMIX=   1;  MIXPRE=   1;  MAXMIX= -45

 Intra band minimization:
   WEIMIN = 0.0010     energy-eigenvalue tresh-hold
   EBREAK =  0.10E-05  absolut break condition
   DEPER  =   0.30     relativ break condition  

   TIME   =   0.40     timestep for ELM

  volume/ion in A,a.u.               =      20.02       135.13
  Fermi-wavevector in a.u.,A,eV,Ry     =   0.956999  1.808467 12.460868  0.915848
  Thomas-Fermi vector in A             =   2.085978
 
 Write flags
   LWAVE  =      T    write WAVECAR
   LCHARG =      T    write CHGCAR
   LVTOT  =      F    write LOCPOT, total local potential
   LVHAR  =      F    write LOCPOT, Hartree potential only
   LELF   =      F    write electronic localiz. function (ELF)
   LORBIT =      0    0 simple, 1 ext, 2 COOP (PROOUT)


 Dipole corrections
   LMONO  =      F    monopole corrections only (constant potential shift)
   LDIPOL =      F    correct potential (dipole corrections)
   IDIPOL =      0    1-x, 2-y, 3-z, 4-all directions 
   EPSILON=  1.0000000 bulk dielectric constant

 Exchange correlation treatment:
   GGA     =    --    GGA type
   LEXCH   =     8    internal setting for exchange type
   VOSKOWN=      0    Vosko Wilk Nusair interpolation
   LHFCALC =     F    Hartree Fock is set to
   LHFONE  =     F    Hartree Fock one center treatment
   AEXX    =    0.0000 exact exchange contribution

 Linear response parameters
   LEPSILON=     F    determine dielectric tensor
   LRPA    =     F    only Hartree local field effects (RPA)
   LNABLA  =     F    use nabla operator in PAW spheres
   LVEL    =     F    velocity operator in full k-point grid
   LINTERFAST=   F  fast interpolation
   KINTER  =     0    interpolate to denser k-point grid
   CSHIFT  =0.1000    complex shift for real part using Kramers Kronig
   OMEGAMAX=  -1.0    maximum frequency
   DEG_THRESHOLD= 0.2000000E-02 threshold for treating states as degnerate
   RTIME   =    0.100 relaxation time in fs

 Orbital magnetization related:
   ORBITALMAG=     F  switch on orbital magnetization
   LCHIMAG   =     F  perturbation theory with respect to B field
   DQ        =  0.001000  dq finite difference perturbation B field



--------------------------------------------------------------------------------------------------------


 conjugate gradient relaxation of ions
 charge density and potential will be updated during run
 non-spin polarized calculation
 Variant of blocked Davidson
 Davidson routine will perform the subspace rotation
 perform sub-space diagonalisation
    after iterative eigenvector-optimisation
 modified Broyden-mixing scheme, WC =      100.0
 initial mixing is a Kerker type mixing with AMIX =  0.4000 and BMIX =      1.0000
 Hartree-type preconditioning will be used
 using additional bands            9
 reciprocal scheme for non local part
 use partial core corrections
 calculate Harris-corrections to forces 
   (improved forces if not selfconsistent)
 use gradient corrections 
 use of overlap-Matrix (Vanderbilt PP)
 Gauss-broadening in eV      SIGMA  =   0.10


--------------------------------------------------------------------------------------------------------


  energy-cutoff  :      500.00
  volume of cell :      160.19
      direct lattice vectors                 reciprocal lattice vectors
     5.431000000  0.000000000  0.000000000     0.184128153  0.000000000  0.000000000
     0.000000000  5.431000000  0.000000000     0.000000000  0.184128153  0.000000000
     0.000000000  0.000000000  5.431000000     0.000000000  0.000000000  0.184128153

  length of vectors
     5.431000000  5.431000000  5.431000000     0.184128153  0.184128153  0.184128153


 
 k-points in units of 2pi/SCALE and weight: k-points                                
   0.00000000  0.00000000  0.00000000       0.001
   0.09090909  0.00000000  0.00000000       0.005
   0.18181818  0.00000000  0.00000000       0.005
   0.27272727  0.00000000  0.00000000       0.005
   0.36363636  0.00000000  0.00000000       0.005
   0.45454545  0.00000000  0.00000000       0.005
   0.09090909  0.09090909  0.00000000       0.009
   0.18181818  0.09090909  0.00000000       0.018
   0.27272727  0.09090909  0.00000000       0.018
   0.36363636  0.09090909  0.00000000       0.018
   0.45454545  0.09090909  0.00000000       0.018
   0.18181818  0.18181818  0.00000000       0.009
   0.27272727  0.18181818  0.00000000       0.018
   0.36363636  0.18181818  0.00000000       0.018
   0.45454545  0.18181818  0.00000000       0.018
   0.27272727  0.27272727  0.00000000       0.009
   0.36363636  0.27272727  0.00000000       0.018
   0.45454545  0.27272727  0.00000000       0.018
   0.36363636  0.36363636  0.00000000       0.009
   0.45454545  0.36363636  0.00000000       0.018
   0.45454545  0.45454545  0.00000000       0.009
   0.09090909  0.09090909  0.09090909       0.006
   0.18181818  0.09090909  0.09090909       0.018
   0.27272727  0.09090909  0.09090909       0.018
   0.36363636  0.09090909  0.09090909       0.018
   0.45454545  0.09090909  0.09090909       0.018
   0.18181818  0.18181818  0.09090909       0.018
   0.27272727  0.18181818  0.09090909       0.036
   0.36363636  0.18181818  0.09090909       0.036
   0.45454545  0.18181818  0.09090909       0.036
   0.27272727  0.27272727  0.09090909       0.018
   0.36363636  0.27272727  0.09090909       0.036
   0.45454545  0.27272727  0.09090909       0.036
   0.36363636  0.36363636  0.09090909       0.018
   0.45454545  0.36363636  0.09090909       0.036
   0.45454545  0.45454545  0.09090909       0.018
   0.18181818  0.18181818  0.18181818       0.006
   0.27272727  0.18181818  0.18181818       0.018
   0.36363636  0.18181818  0.18181818       0.018
   0.45454545  0.18181818  0.18181818       0.018
   0.27272727  0.27272727  0.18181818       0.018
   0.36363636  0.27272727  0.18181818       0.036
   0.45454545  0.27272727  0.18181818       0.036
   0.36363636  0.36363636  0.18181818       0.018
   0.45454545  0.36363636  0.18181818       0.036
   0.45454545  0.45454545  0.18181818       0.018
   0.27272727  0.27272727  0.27272727       0.006
   0.36363636  0.27272727  0.27272727       0.018
   0.45454545  0.27272727  0.27272727       0.018
   0.36363636  0.36363636  0.27272727       0.018
   0.45454545  0.36363636  0.27272727       0.036
   0.45454545  0.45454545  0.27272727       0.018
   0.36363636  0.36363636  0.36363636       0.006
   0.45454545  0.36363636  0.36363636       0.018
   0.45454545  0.45454545  0.36363636       0.018
   0.45454545  0.45454545  0.45454545       0.006
 
 k-points in reciprocal lattice and weights: k-points                                
   0.00000000  0.00000000  0.00000000       0.001
   0.09090909  0.00000000  0.00000000       0.005
   0.18181818  0.00000000  0.00000000       0.005
   0.27272727  0.00000000  0.00000000       0.005
   0.36363636  0.00000000  0.00000000       0.005
   0.45454545  0.00000000  0.00000000       0.005
   0.09090909  0.09090909  0.00000000       0.009
   0.18181818  0.09090909  0.00000000       0.018
   0.27272727  0.09090909  0.00000000       0.018
   0.36363636  0.09090909  0.00000000       0.018
   0.45454545  0.09090909  0.00000000       0.018
   0.18181818  0.18181818  0.00000000       0.009
   0.27272727  0.18181818  0.00000000       0.018
   0.36363636  0.18181818  0.00000000       0.018
   0.45454545  0.18181818  0.00000000       0.018
   0.27272727  0.27272727  0.00000000       0.009
   0.36363636  0.27272727  0.00000000       0.018
   0.45454545  0.27272727  0.00000000       0.018
   0.36363636  0.36363636  0.00000000       0.009
   0.45454545  0.36363636  0.00000000       0.018
   0.45454545  0.45454545  0.00000000       0.009
   0.09090909  0.09090909  0.09090909       0.006
   0.18181818  0.09090909  0.09090909       0.018
   0.27272727  0.09090909  0.09090909       0.018
   0.36363636  0.09090909  0.09090909       0.018
   0.45454545  0.09090909  0.09090909       0.018
   0.18181818  0.18181818  0.09090909       0.018
   0.27272727  0.18181818  0.09090909       0.036
   0.36363636  0.18181818  0.09090909       0.036
   0.45454545  0.18181818  0.09090909       0.036
   0.27272727  0.27272727  0.09090909       0.018
   0.36363636  0.27272727  0.09090909       0.036
   0.45454545  0.27272727  0.09090909       0.036
   0.36363636  0.36363636  0.09090909       0.018
   0.45454545  0.36363636  0.09090909       0.036
   0.45454545  0.45454545  0.09090909       0.018
   0.18181818  0.18181818  0.18181818       0.006
   0.27272727  0.18181818  0.18181818       0.018
   0.36363636  0.18181818  0.18181818       0.018
   0.45454545  0.18181818  0.18181818       0.018
   0.27272727  0.27272727  0.18181818       0.018
   0.36363636  0.27272727  0.18181818       0.036
   0.45454545  0.27272727  0.18181818       0.036
   0.36363636  0.36363636  0.18181818       0.018
   0.45454545  0.36363636  0.18181818       0.036
   0.45454545  0.45454545  0.18181818       0.018
   0.27272727  0.27272727  0.27272727       0.006
   0.36363636  0.27272727  0.27272727       0.018
   0.45454545  0.27272727  0.27272727       0.018
   0.36363636  0.36363636  0.27272727       0.018
   0.45454545  0.36363636  0.27272727       0.036
   0.45454545  0.45454545  0.27272727       0.018
   0.36363636  0.36363636  0.36363636       0.006
   0.45454545  0.36363636  0.36363636       0.018
   0.45454545  0.45454545  0.36363636       0.018
   0.45454545  0.45454545  0.45454545       0.006
 
 position of ions in fractional coordinates (direct lattice) 
   0.00000000  0.00000000  0.00000000
   0.00000000  0.50000000  0.50000000
   0.50000000  0.00000000  0.50000000
   0.50000000  0.50000000  0.00000000
   0.25000000  0.25000000  0.25000000
   0.75000000  0.75000000  0.25000000
   0.75000000  0.25000000  0.75000000
   0.25000000  0.75000000  0.75000000
 
 position of ions in cartesian coordinates  (Angst):
   0.00000000  0.00000000  0.00000000
   0.00000000  2.71550000  2.71550000
   2.71550000  0.00000000  2.71550000
   2.71550000  2.71550000  0.00000000
   1.35775000  1.35775000  1.35775000
   4.07325000  4.07325000  1.35775000
   4.07325000  1.35775000  4.07325000
   1.35775000  4.07325000  4.07325000
 


--------------------------------------------------------------------------------------------------------


 k-point  1 :   0.0000 0.0000 0.0000  plane waves:    4067
 k-point  2 :   0.0909 0.0000 0.0000  plane waves:    4019
 k-point  3 :   0.1818 0.0000 0.0000  plane waves:    4044
 k-point  4 :   0.2727 0.0000 0.0000  plane waves:    4060
 k-point  5 :   0.3636 0.0000 0.0000  plane waves:    4056
 k-point  6 :   0.4545 0.0000 0.0000  plane waves:    4088
 k-point  7 :   0.0909 0.0909 0.0000  plane waves:    4026
 k-point  8 :   0.1818 0.0909 0.0000  plane waves:    4041
 k-point  9 :   0.2727 0.0909 0.0000  plane waves:    4058
 k-point 10 :   0.3636 0.0909 0.0000  plane waves:    4058
 k-point 11 :   0.4545 0.0909 0.0000  plane waves:    4068
 k-point 12 :   0.1818 0.1818 0.0000  plane waves:    4052
 k-point 13 :   0.2727 0.1818 0.0000  plane waves:    4059
 k-point 14 :   0.3636 0.1818 0.0000  plane waves:    4069
 k-point 15 :   0.4545 0.1818 0.0000  plane waves:    4066
 k-point 16 :   0.2727 0.2727 0.0000  plane waves:    4066
 k-point 17 :   0.3636 0.2727 0.0000  plane waves:    4084
 k-point 18 :   0.4545 0.2727 0.0000  plane waves:    4066
 k-point 19 :   0.3636 0.3636 0.0000  plane waves:    4078
 k-point 20 :   0.4545 0.3636 0.0000  plane waves:    4065
 k-point 21 :   0.4545 0.4545 0.0000  plane waves:    4062
 k-point 22 :   0.0909 0.0909 0.0909  plane waves:    4043
 k-point 23 :   0.1818 0.0909 0.0909  plane waves:    4044
 k-point 24 :   0.2727 0.0909 0.0909  plane waves:    4054
 k-point 25 :   0.3636 0.0909 0.0909  plane waves:    4059
 k-point 26 :   0.4545 0.0909 0.0909  plane waves:    4065
 k-point 27 :   0.1818 0.1818 0.0909  plane waves:    4054
 k-point 28 :   0.2727 0.1818 0.0909  plane waves:    4070
 k-point 29 :   0.3636 0.1818 0.0909  plane waves:    4074
 k-point 30 :   0.4545 0.1818 0.0909  plane waves:    4065
 k-point 31 :   0.2727 0.2727 0.0909  plane waves:    4064
 k-point 32 :   0.3636 0.2727 0.0909  plane waves:    4074
 k-point 33 :   0.4545 0.2727 0.0909  plane waves:    4077
 k-point 34 :   0.3636 0.3636 0.0909  plane waves:    4070
 k-point 35 :   0.4545 0.3636 0.0909  plane waves:    4072
 k-point 36 :   0.4545 0.4545 0.0909  plane waves:    4069
 k-point 37 :   0.1818 0.1818 0.1818  plane waves:    4049
 k-point 38 :   0.2727 0.1818 0.1818  plane waves:    4056
 k-point 39 :   0.3636 0.1818 0.1818  plane waves:    4079
 k-point 40 :   0.4545 0.1818 0.1818  plane waves:    4069
 k-point 41 :   0.2727 0.2727 0.1818  plane waves:    4066
 k-point 42 :   0.3636 0.2727 0.1818  plane waves:    4067
 k-point 43 :   0.4545 0.2727 0.1818  plane waves:    4067
 k-point 44 :   0.3636 0.3636 0.1818  plane waves:    4072
 k-point 45 :   0.4545 0.3636 0.1818  plane waves:    4072
 k-point 46 :   0.4545 0.4545 0.1818  plane waves:    4076
 k-point 47 :   0.2727 0.2727 0.2727  plane waves:    4061
 k-point 48 :   0.3636 0.2727 0.2727  plane waves:    4061
 k-point 49 :   0.4545 0.2727 0.2727  plane waves:    4073
 k-point 50 :   0.3636 0.3636 0.2727  plane waves:    4059
 k-point 51 :   0.4545 0.3636 0.2727  plane waves:    4072
 k-point 52 :   0.4545 0.4545 0.2727  plane waves:    4068
 k-point 53 :   0.3636 0.3636 0.3636  plane waves:    4062
 k-point 54 :   0.4545 0.3636 0.3636  plane waves:    4075
 k-point 55 :   0.4545 0.4545 0.3636  plane waves:    4072
 k-point 56 :   0.4545 0.4545 0.4545  plane waves:    4077

 maximum and minimum number of plane-waves per node :       533      487

 maximum number of plane-waves:      4088
 maximum index in each direction: 
   IXMAX=    9   IYMAX=    9   IZMAX=    9
   IXMIN=  -10   IYMIN=  -10   IZMIN=  -10

 NGX is ok and might be reduce to  40
 NGY is ok and might be reduce to  40
 NGZ is ok and might be reduce to  40

 total amount of memory used by VASP on root node    36060. kBytes
========================================================================

   base      :      30000. kBytes
   nonl-proj :       1985. kBytes
   fftplans  :        684. kBytes
   grid      :        947. kBytes
   one-center:          3. kBytes
   wavefun   :       2441. kBytes
 
     INWAV:  cpu time    0.0000: real time    0.0000
 Broyden mixing: mesh for mixing (old mesh)
   NGX = 19   NGY = 19   NGZ = 19
  (NGX  = 80   NGY  = 80   NGZ  = 80)
  gives a total of   6859 points

 initial charge density was supplied:
 charge density of overlapping atoms calculated
 number of electron      32.0000000 magnetization 
 keeping initial charge density in first step


--------------------------------------------------------------------------------------------------------


 Maximum index for augmentation-charges          673 (set IRDMAX)


--------------------------------------------------------------------------------------------------------


 First call to EWALD:  gamma=   0.326
 Maximum number of real-space cells 3x 3x 3
 Maximum number of reciprocal cells 3x 3x 3

 FEWALD executed in parallel
    FEWALD:  cpu time    0.0019: real time    0.0019


----------------------------------------- Iteration    1(   1)  ---------------------------------------


    POTLOK:  cpu time    0.0235: real time    0.1089
    SETDIJ:  cpu time    0.0017: real time    0.0017
     EDDAV:  cpu time    0.8549: real time    1.0377
       DOS:  cpu time    0.0014: real time    0.0014
    --------------------------------------------
      LOOP:  cpu time    0.8828: real time    1.1521

 eigenvalue-minimisations  :  2800
 total energy-change (2. order) : 0.6355278E+02  (-0.1202253E+04)
 number of electron      32.0000000 magnetization 
 augmentation part       32.0000000 magnetization 

 Free energy of the ion-electron system (eV)
  ---------------------------------------------------
  alpha Z        PSCENC =        13.44915721
  Ewald energy   TEWEN  =      -914.08579262
  -Hartree energ DENC   =       -44.03749844
  -exchange      EXHF   =         0.00000000
  -V(xc)+E(xc)   XCENC  =       -74.41615756
  PAW double counting   =       704.99039692     -564.24414232
  entropy T*S    EENTRO =        -0.00744137
  eigenvalues    EBANDS =       117.37420754
  atomic energy  EATOM  =       824.53005375
  Solvation  Ediel_sol  =         0.00000000
  ---------------------------------------------------
  free energy    TOTEN  =        63.55278310 eV

  energy without entropy =       63.56022448  energy(sigma->0) =       63.55650379


--------------------------------------------------------------------------------------------------------




----------------------------------------- Iteration    1(   2)  ---------------------------------------


     EDDAV:  cpu time    0.7384: real time    0.7404
       DOS:  cpu time    0.0011: real time    0.0011
    --------------------------------------------
      LOOP:  cpu time    0.7401: real time    0.7555

 eigenvalue-minimisations  :  3610
 total energy-change (2. order) :-0.1030503E+03  (-0.9911467E+02)
 number of electron      32.0000000 magnetization 
 augmentation part       32.0000000 magnetization 

 Free energy of the ion-electron system (eV)
  ---------------------------------------------------
  alpha Z        PSCENC =        13.44915721
  Ewald energy   TEWEN  =      -914.08579262
  -Hartree energ DENC   =       -44.03749844
  -exchange      EXHF   =         0.00000000
  -V(xc)+E(xc)   XCENC  =       -74.41615756
  PAW double counting   =       704.99039692     -564.24414232
  entropy T*S    EENTRO =        -0.00002141
  eigenvalues    EBANDS =        14.31651886
  atomic energy  EATOM  =       824.53005375
  Solvation  Ediel_sol  =         0.00000000
  ---------------------------------------------------
  free energy    TOTEN  =       -39.49748561 eV

  energy without entropy =      -39.49746420  energy(sigma->0) =      -39.49747491


--------------------------------------------------------------------------------------------------------




----------------------------------------- Iteration    1(   3)  ---------------------------------------


     EDDAV:  cpu time    0.7497: real time    0.8065
       DOS:  cpu time    0.0009: real time    0.0009
    CHARGE:  cpu time    0.0443: real time    0.0473
    MIXING:  cpu time    0.0011: real time    0.0012
    --------------------------------------------
      LOOP:  cpu time    0.7964: real time    0.8590

 eigenvalue-minimisations  :  3695
 total energy-change (2. order) :-0.4548493E+01  (-0.4512570E+01)
 number of electron      32.0000004 magnetization 
 augmentation part       -1.8759360 magnetization 

 Broyden mixing:
  rms(total) = 0.10408E+01    rms(broyden)= 0.10408E+01
  rms(prec ) = 0.13988E+01
  weight for this iteration     100.00

 Free energy of the ion-electron system (eV)
  ---------------------------------------------------
  alpha Z        PSCENC =        13.44915721
  Ewald energy   TEWEN  =      -914.08579262
  -Hartree energ DENC   =       -44.03749844
  -exchange      EXHF   =         0.00000000
  -V(xc)+E(xc)   XCENC  =       -74.41615756
  PAW double counting   =       704.99039692     -564.24414232
  entropy T*S    EENTRO =        -0.00000000
  eigenvalues    EBANDS =         9.76800474
  atomic energy  EATOM  =       824.53005375
  Solvation  Ediel_sol  =         0.00000000
  ---------------------------------------------------
  free energy    TOTEN  =       -44.04597832 eV

  energy without entropy =      -44.04597832  energy(sigma->0) =      -44.04597832


--------------------------------------------------------------------------------------------------------




----------------------------------------- Iteration    1(   4)  ---------------------------------------


    POTLOK:  cpu time    0.0073: real time    0.0073
    SETDIJ:  cpu time    0.0022: real time    0.0022
     EDDAV:  cpu time    0.7635: real time    0.8239
       DOS:  cpu time    0.0009: real time    0.0009
    CHARGE:  cpu time    0.0465: real time    0.0466
    MIXING:  cpu time    0.0010: real time    0.0011
    --------------------------------------------
      LOOP:  cpu time    0.8218: real time    0.8852

 eigenvalue-minimisations  :  3730
 total energy-change (2. order) : 0.4406927E+00  (-0.6779946E-01)
 number of electron      32.0000004 magnetization 
 augmentation part       -1.8592931 magnetization 

 Broyden mixing:
  rms(total) = 0.58211E+00    rms(broyden)= 0.58211E+00
  rms(prec ) = 0.80757E+00
  weight for this iteration     100.00

 eigenvalues of (default mixing * dielectric matrix)
  average eigenvalue GAMMA=   2.2241
  2.2241

 Free energy of the ion-electron system (eV)
  ---------------------------------------------------
  alpha Z        PSCENC =        13.44915721
  Ewald energy   TEWEN  =      -914.08579262
  -Hartree energ DENC   =       -49.92628902
  -exchange      EXHF   =         0.00000000
  -V(xc)+E(xc)   XCENC  =       -73.47257475
  PAW double counting   =      1612.28568744    -1471.97793363
  entropy T*S    EENTRO =        -0.00000000
  eigenvalues    EBANDS =        15.59240603
  atomic energy  EATOM  =       824.53005375
  Solvation  Ediel_sol  =         0.00000000
  ---------------------------------------------------
  free energy    TOTEN  =       -43.60528559 eV

  energy without entropy =      -43.60528559  energy(sigma->0) =      -43.60528559


--------------------------------------------------------------------------------------------------------




----------------------------------------- Iteration    1(   5)  ---------------------------------------


    POTLOK:  cpu time    0.0092: real time    0.0098
    SETDIJ:  cpu time    0.0024: real time    0.0024
     EDDAV:  cpu time    0.7088: real time    0.7110
       DOS:  cpu time    0.0010: real time    0.0010
    CHARGE:  cpu time    0.0437: real time    0.0438
    MIXING:  cpu time    0.0008: real time    0.0008
    --------------------------------------------
      LOOP:  cpu time    0.7663: real time    0.7727

 eigenvalue-minimisations  :  3345
 total energy-change (2. order) : 0.2335615E+00  (-0.4627224E-01)
 number of electron      32.0000004 magnetization 
 augmentation part       -1.8328005 magnetization 

 Broyden mixing:
  rms(total) = 0.49367E-01    rms(broyden)= 0.49367E-01
  rms(prec ) = 0.68265E-01
  weight for this iteration     100.00

 eigenvalues of (default mixing * dielectric matrix)
  average eigenvalue GAMMA=   1.7650
  1.0286  2.5014

 Free energy of the ion-electron system (eV)
  ---------------------------------------------------
  alpha Z        PSCENC =        13.44915721
  Ewald energy   TEWEN  =      -914.08579262
  -Hartree energ DENC   =       -59.25902383
  -exchange      EXHF   =         0.00000000
  -V(xc)+E(xc)   XCENC  =       -71.97530126
  PAW double counting   =      3413.82249208    -3274.06193894
  entropy T*S    EENTRO =        -0.00000022
  eigenvalues    EBANDS =        24.20862970
  atomic energy  EATOM  =       824.53005375
  Solvation  Ediel_sol  =         0.00000000
  ---------------------------------------------------
  free energy    TOTEN  =       -43.37172414 eV

  energy without entropy =      -43.37172391  energy(sigma->0) =      -43.37172403


--------------------------------------------------------------------------------------------------------




----------------------------------------- Iteration    1(   6)  ---------------------------------------


    POTLOK:  cpu time    0.0082: real time    0.0087
    SETDIJ:  cpu time    0.0022: real time    0.0022
     EDDAV:  cpu time    0.9485: real time    0.9645
       DOS:  cpu time    0.0010: real time    0.0010
    CHARGE:  cpu time    0.0432: real time    0.0433
    MIXING:  cpu time    0.0008: real time    0.0008
    --------------------------------------------
      LOOP:  cpu time    1.0045: real time    1.0238

 eigenvalue-minimisations  :  3745
 total energy-change (2. order) :-0.5652667E-02  (-0.1967743E-02)
 number of electron      32.0000004 magnetization 
 augmentation part       -1.8332045 magnetization 

 Broyden mixing:
  rms(total) = 0.24389E-01    rms(broyden)= 0.24389E-01
  rms(prec ) = 0.35656E-01
  weight for this iteration     100.00

 eigenvalues of (default mixing * dielectric matrix)
  average eigenvalue GAMMA=   2.0252
  0.8856  2.5950  2.5950

 Free energy of the ion-electron system (eV)
  ---------------------------------------------------
  alpha Z        PSCENC =        13.44915721
  Ewald energy   TEWEN  =      -914.08579262
  -Hartree energ DENC   =       -59.68000935
  -exchange      EXHF   =         0.00000000
  -V(xc)+E(xc)   XCENC  =       -71.88528862
  PAW double counting   =      3543.41950601    -3403.63435799
  entropy T*S    EENTRO =        -0.00000021
  eigenvalues    EBANDS =        24.50935502
  atomic energy  EATOM  =       824.53005375
  Solvation  Ediel_sol  =         0.00000000
  ---------------------------------------------------
  free energy    TOTEN  =       -43.37737681 eV

  energy without entropy =      -43.37737659  energy(sigma->0) =      -43.37737670


--------------------------------------------------------------------------------------------------------




----------------------------------------- Iteration    1(   7)  ---------------------------------------


    POTLOK:  cpu time    0.0096: real time    0.0101
    SETDIJ:  cpu time    0.0022: real time    0.0022
     EDDAV:  cpu time    0.6711: real time    0.6729
       DOS:  cpu time    0.0010: real time    0.0010
    CHARGE:  cpu time    0.0439: real time    0.0440
    MIXING:  cpu time    0.0008: real time    0.0008
    --------------------------------------------
      LOOP:  cpu time    0.7291: real time    0.7345

 eigenvalue-minimisations  :  3160
 total energy-change (2. order) :-0.2316302E-02  (-0.4692098E-03)
 number of electron      32.0000004 magnetization 
 augmentation part       -1.8358062 magnetization 

 Broyden mixing:
  rms(total) = 0.10120E-01    rms(broyden)= 0.10120E-01
  rms(prec ) = 0.12353E-01
  weight for this iteration     100.00

 eigenvalues of (default mixing * dielectric matrix)
  average eigenvalue GAMMA=   1.7313
  2.5321  2.4562  0.9685  0.9685

 Free energy of the ion-electron system (eV)
  ---------------------------------------------------
  alpha Z        PSCENC =        13.44915721
  Ewald energy   TEWEN  =      -914.08579262
  -Hartree energ DENC   =       -59.52439043
  -exchange      EXHF   =         0.00000000
  -V(xc)+E(xc)   XCENC  =       -71.87959742
  PAW double counting   =      3513.64871525    -3373.78476743
  entropy T*S    EENTRO =        -0.00000012
  eigenvalues    EBANDS =        24.26692870
  atomic energy  EATOM  =       824.53005375
  Solvation  Ediel_sol  =         0.00000000
  ---------------------------------------------------
  free energy    TOTEN  =       -43.37969311 eV

  energy without entropy =      -43.37969298  energy(sigma->0) =      -43.37969305


--------------------------------------------------------------------------------------------------------




----------------------------------------- Iteration    1(   8)  ---------------------------------------


    POTLOK:  cpu time    0.0072: real time    0.0073
    SETDIJ:  cpu time    0.0013: real time    0.0013
     EDDAV:  cpu time    0.6596: real time    0.6613
       DOS:  cpu time    0.0010: real time    0.0010
    --------------------------------------------
      LOOP:  cpu time    0.6695: real time    0.6742

 eigenvalue-minimisations  :  2945
 total energy-change (2. order) :-0.1599540E-04  (-0.1440993E-04)
 number of electron      32.0000004 magnetization 
 augmentation part       -1.8358062 magnetization 

 Free energy of the ion-electron system (eV)
  ---------------------------------------------------
  alpha Z        PSCENC =        13.44915721
  Ewald energy   TEWEN  =      -914.08579262
  -Hartree energ DENC   =       -59.63782413
  -exchange      EXHF   =         0.00000000
  -V(xc)+E(xc)   XCENC  =       -71.86605825
  PAW double counting   =      3507.58767788    -3367.73422104
  entropy T*S    EENTRO =        -0.00000013
  eigenvalues    EBANDS =        24.37729822
  atomic energy  EATOM  =       824.53005375
  Solvation  Ediel_sol  =         0.00000000
  ---------------------------------------------------
  free energy    TOTEN  =       -43.37970910 eV

  energy without entropy =      -43.37970897  energy(sigma->0) =      -43.37970904


--------------------------------------------------------------------------------------------------------




 average (electrostatic) potential at core
  the test charge radii are     0.9892
  (the norm of the test charge is              1.0000)
       1 -83.2549       2 -83.2549       3 -83.2549       4 -83.2549       5 -83.2549
       6 -83.2549       7 -83.2549       8 -83.2549
 
 
 
 E-fermi :   6.1054     XC(G=0):  -9.4113     alpha+bet :-11.9779


 k-point     1 :       0.0000    0.0000    0.0000
  band No.  band energies     occupation 
      1      -6.1339      2.00000
      2      -1.9902      2.00000
      3      -1.9902      2.00000
      4      -1.9902      2.00000
      5      -1.9902      2.00000
      6      -1.9902      2.00000
      7      -1.9902      2.00000
      8       2.9743      2.00000
      9       2.9743      2.00000
     10       2.9743      2.00000
     11       2.9743      2.00000
     12       2.9743      2.00000
     13       2.9743      2.00000
     14       5.8221      1.99994
     15       5.8221      1.99994
     16       5.8221      1.99994
     17       6.5325      0.00000
     18       6.5325      0.00000
     19       6.5325      0.00000
     20       6.5325      0.00000
     21       6.5325      0.00000
     22       6.5325      0.00000
     23       8.3890      0.00000
     24       8.3890      0.00000
     25       8.3890      0.00000

 k-point     2 :       0.0909    0.0000    0.0000
  band No.  band energies     occupation 
      1      -6.0978      2.00000
      2      -2.6709      2.00000
      3      -1.9783      2.00000
      4      -1.9783      2.00000
      5      -1.9783      2.00000
      6      -1.9783      2.00000
      7      -1.2664      2.00000
      8       2.8699      2.00000
      9       2.8699      2.00000
     10       2.8699      2.00000
     11       2.8699      2.00000
     12       3.0069      2.00000
     13       3.0069      2.00000
     14       5.5881      2.00000
     15       5.6751      2.00000
     16       5.6751      2.00000
     17       6.4187      0.00001
     18       6.7280      0.00000
     19       6.7280      0.00000
     20       6.7280      0.00000
     21       6.7280      0.00000
     22       6.7442      0.00000
     23       8.3011      0.00000
     24       8.5805      0.00000
     25       8.5805      0.00000

 k-point     3 :       0.1818    0.0000    0.0000
  band No.  band energies     occupation 
      1      -5.9894      2.00000
      2      -3.3021      2.00000
      3      -1.9455      2.00000
      4      -1.9455      2.00000
      5      -1.9455      2.00000
      6      -1.9455      2.00000
      7      -0.5070      2.00000
      8       2.6215      2.00000
      9       2.6215      2.00000
     10       2.6215      2.00000
     11       2.6215      2.00000
     12       3.1044      2.00000
     13       3.1044      2.00000
     14       5.0208      2.00000
     15       5.3276      2.00000
     16       5.3276      2.00000
     17       6.3973      0.00004
     18       7.0580      0.00000
     19       7.2516      0.00000
     20       7.2516      0.00000
     21       7.2516      0.00000
     22       7.2516      0.00000
     23       8.0680      0.00000
     24       9.0608      0.00000
     25       9.0608      0.00000

 k-point     4 :       0.2727    0.0000    0.0000
  band No.  band energies     occupation 
      1      -5.8093      2.00000
      2      -3.8784      2.00000
      3      -1.9005      2.00000
      4      -1.9005      2.00000
      5      -1.9005      2.00000
      6      -1.9005      2.00000
      7       0.2796      2.00000
      8       2.3424      2.00000
      9       2.3424      2.00000
     10       2.3424      2.00000
     11       2.3424      2.00000
     12       3.2660      2.00000
     13       3.2660      2.00000
     14       4.3025      2.00000
     15       4.9112      2.00000
     16       4.9112      2.00000
     17       6.4623      0.00000
     18       7.4770      0.00000
     19       7.7539      0.00000
     20       7.9946      0.00000
     21       7.9946      0.00000
     22       7.9946      0.00000
     23       7.9946      0.00000
     24       9.6964      0.00000
     25       9.6972      0.00000

 k-point     5 :       0.3636    0.0000    0.0000
  band No.  band energies     occupation 
      1      -5.5584      2.00000
      2      -4.3954      2.00000
      3      -1.8570      2.00000
      4      -1.8570      2.00000
      5      -1.8570      2.00000
      6      -1.8570      2.00000
      7       1.0849      2.00000
      8       2.1156      2.00000
      9       2.1156      2.00000
     10       2.1156      2.00000
     11       2.1156      2.00000
     12       3.4898      2.00000
     13       3.4898      2.00000
     14       3.5221      2.00000
     15       4.4952      2.00000
     16       4.4952      2.00000
     17       6.6069      0.00000
     18       7.4173      0.00000
     19       8.0002      0.00000
     20       8.8769      0.00000
     21       8.8769      0.00000
     22       8.8769      0.00000
     23       8.8769      0.00000
     24       9.9590      0.00000
     25      10.4152      0.00000

 k-point     6 :       0.4545    0.0000    0.0000
  band No.  band energies     occupation 
      1      -5.2379      2.00000
      2      -4.8495      2.00000
      3      -1.8301      2.00000
      4      -1.8301      2.00000
      5      -1.8301      2.00000
      6      -1.8301      2.00000
      7       1.8998      2.00000
      8       1.9902      2.00000
      9       1.9902      2.00000
     10       1.9902      2.00000
     11       1.9902      2.00000
     12       2.7157      2.00000
     13       3.7729      2.00000
     14       3.7729      2.00000
     15       4.1108      2.00000
     16       4.1108      2.00000
     17       6.8227      0.00000
     18       7.0984      0.00000
     19       8.6187      0.00000
     20       9.3033      0.00000
     21       9.8104      0.00000
     22       9.8104      0.00000
     23       9.8104      0.00000
     24       9.8104      0.00000
     25      11.1307      0.00000

 k-point     7 :       0.0909    0.0909    0.0000
  band No.  band energies     occupation 
      1      -6.0617      2.00000
      2      -2.6519      2.00000
      3      -2.6519      2.00000
      4      -2.0236      2.00000
      5      -1.9120      2.00000
      6      -1.2646      2.00000
      7      -1.2646      2.00000
      8       2.5624      2.00000
      9       2.8872      2.00000
     10       2.8872      2.00000
     11       2.9222      2.00000
     12       2.9222      2.00000
     13       3.0321      2.00000
     14       5.1918      2.00000
     15       5.5280      2.00000
     16       5.7896      1.99999
     17       6.5994      0.00000
     18       6.6228      0.00000
     19       6.6228      0.00000
     20       6.9291      0.00000
     21       6.9291      0.00000
     22       7.1866      0.00000
     23       8.4633      0.00000
     24       8.5264      0.00000
     25       8.6062      0.00000

 k-point     8 :       0.1818    0.0909    0.0000
  band No.  band energies     occupation 
      1      -5.9536      2.00000
      2      -3.2780      2.00000
      3      -2.5969      2.00000
      4      -2.0562      2.00000
      5      -1.8220      2.00000
      6      -1.2632      2.00000
      7      -0.5199      2.00000
      8       2.2234      2.00000
      9       2.6016      2.00000
     10       2.7233      2.00000
     11       2.9731      2.00000
     12       2.9858      2.00000
     13       3.0450      2.00000
     14       4.6160      2.00000
     15       5.1794      2.00000
     16       5.5868      2.00000
     17       6.6079      0.00000
     18       6.8600      0.00000
     19       7.1628      0.00000
     20       7.2308      0.00000
     21       7.4314      0.00000
     22       7.8686      0.00000
     23       8.2637      0.00000
     24       8.8768      0.00000
     25       8.9855      0.00000

 k-point     9 :       0.2727    0.0909    0.0000
  band No.  band energies     occupation 
      1      -5.7740      2.00000
      2      -3.8507      2.00000
      3      -2.5125      2.00000
      4      -2.0893      2.00000
      5      -1.7116      2.00000
      6      -1.2725      2.00000
      7       0.2456      2.00000
      8       1.9371      2.00000
      9       2.2723      2.00000
     10       2.5117      2.00000
     11       2.7961      2.00000
     12       3.1261      2.00000
     13       3.2385      2.00000
     14       3.9692      2.00000
     15       4.7614      2.00000
     16       5.1681      2.00000
     17       6.6772      0.00000
     18       7.4441      0.00000
     19       7.6363      0.00000
     20       7.9195      0.00000
     21       7.9576      0.00000
     22       8.1546      0.00000
     23       8.6980      0.00000
     24       9.3837      0.00000
     25       9.6296      0.00000

 k-point    10 :       0.3636    0.0909    0.0000
  band No.  band energies     occupation 
      1      -5.5238      2.00000
      2      -4.3651      2.00000
      3      -2.4095      2.00000
      4      -2.1368      2.00000
      5      -1.5899      2.00000
      6      -1.3060      2.00000
      7       1.0201      2.00000
      8       1.7542      2.00000
      9       1.9826      2.00000
     10       2.3655      2.00000
     11       2.5747      2.00000
     12       3.2762      2.00000
     13       3.3440      2.00000
     14       3.5028      2.00000
     15       4.3443      2.00000
     16       4.6917      2.00000
     17       6.8240      0.00000
     18       7.6274      0.00000
     19       8.1452      0.00000
     20       8.2410      0.00000
     21       8.8132      0.00000
     22       9.0181      0.00000
     23       9.6219      0.00000
     24       9.8538      0.00000
     25      10.3800      0.00000

 k-point    11 :       0.4545    0.0909    0.0000
  band No.  band energies     occupation 
      1      -5.2043      2.00000
      2      -4.8173      2.00000
      3      -2.3029      2.00000
      4      -2.2083      2.00000
      5      -1.4715      2.00000
      6      -1.3729      2.00000
      7       1.7010      2.00000
      8       1.7820      2.00000
      9       1.7915      2.00000
     10       2.3261      2.00000
     11       2.4024      2.00000
     12       2.5472      2.00000
     13       3.6237      2.00000
     14       3.8370      2.00000
     15       3.9599      2.00000
     16       4.2373      2.00000
     17       7.0397      0.00000
     18       7.3130      0.00000
     19       8.7484      0.00000
     20       9.1609      0.00000
     21       9.4096      0.00000
     22       9.7841      0.00000
     23       9.8126      0.00000
     24      10.4348      0.00000
     25      10.5255      0.00000

 k-point    12 :       0.1818    0.1818    0.0000
  band No.  band energies     occupation 
      1      -5.8463      2.00000
      2      -3.2073      2.00000
      3      -3.2073      2.00000
      4      -2.1668      2.00000
      5      -1.6777      2.00000
      6      -0.5625      2.00000
      7      -0.5625      2.00000
      8       1.8767      2.00000
      9       2.6601      2.00000
     10       2.6601      2.00000
     11       2.9105      2.00000
     12       2.9105      2.00000
     13       3.2031      2.00000
     14       4.0345      2.00000
     15       4.8277      2.00000
     16       5.6796      2.00000
     17       6.7974      0.00000
     18       7.1593      0.00000
     19       7.1593      0.00000
     20       7.7072      0.00000
     21       7.7072      0.00000
     22       8.6371      0.00000
     23       8.6858      0.00000
     24       8.7832      0.00000
     25       8.8553      0.00000

 k-point    13 :       0.2727    0.1818    0.0000
  band No.  band energies     occupation 
      1      -5.6682      2.00000
      2      -3.7687      2.00000
      3      -3.0945      2.00000
      4      -2.2908      2.00000
      5      -1.5102      2.00000
      6      -0.6438      2.00000
      7       0.1424      2.00000
      8       1.6331      2.00000
      9       2.2945      2.00000
     10       2.7857      2.00000
     11       2.7936      2.00000
     12       3.1859      2.00000
     13       3.2122      2.00000
     14       3.4238      2.00000
     15       4.4060      2.00000
     16       5.4442      2.00000
     17       7.1186      0.00000
     18       7.2351      0.00000
     19       7.9242      0.00000
     20       8.0828      0.00000
     21       8.4047      0.00000
     22       8.4711      0.00000
     23       9.0155      0.00000
     24       9.4512      0.00000
     25       9.5130      0.00000

 k-point    14 :       0.3636    0.1818    0.0000
  band No.  band energies     occupation 
      1      -5.4203      2.00000
      2      -4.2749      2.00000
      3      -2.9477      2.00000
      4      -2.4367      2.00000
      5      -1.3230      2.00000
      6      -0.7696      2.00000
      7       0.8376      2.00000
      8       1.5203      2.00000
      9       1.9584      2.00000
     10       2.7337      2.00000
     11       2.8011      2.00000
     12       2.9983      2.00000
     13       3.0774      2.00000
     14       3.5488      2.00000
     15       3.9865      2.00000
     16       5.0013      2.00000
     17       7.3835      0.00000
     18       7.7556      0.00000
     19       8.1615      0.00000
     20       8.5587      0.00000
     21       8.8224      0.00000
     22       9.2390      0.00000
     23       9.4624      0.00000
     24      10.2074      0.00000
     25      10.4471      0.00000

 k-point    15 :       0.4545    0.1818    0.0000
  band No.  band energies     occupation 
      1      -5.1039      2.00000
      2      -4.7212      2.00000
      3      -2.7788      2.00000
      4      -2.6031      2.00000
      5      -1.1262      2.00000
      6      -0.9355      2.00000
      7       1.5132      2.00000
      8       1.5454      2.00000
      9       1.6985      2.00000
     10       2.1663      2.00000
     11       2.7782      2.00000
     12       2.9069      2.00000
     13       3.2698      2.00000
     14       3.6023      2.00000
     15       3.9908      2.00000
     16       4.4897      2.00000
     17       7.5959      0.00000
     18       7.8609      0.00000
     19       8.5953      0.00000
     20       9.1241      0.00000
     21       9.5056      0.00000
     22       9.6781      0.00000
     23       9.8050      0.00000
     24      10.2814      0.00000
     25      10.3865      0.00000

 k-point    16 :       0.2727    0.2727    0.0000
  band No.  band energies     occupation 
      1      -5.4927      2.00000
      2      -3.6356      2.00000
      3      -3.6356      2.00000
      4      -2.5130      2.00000
      5      -1.2885      2.00000
      6      -0.0279      2.00000
      7      -0.0279      2.00000
      8       1.4590      2.00000
      9       2.4023      2.00000
     10       2.4023      2.00000
     11       2.8513      2.00000
     12       3.1643      2.00000
     13       3.1643      2.00000
     14       3.4791      2.00000
     15       3.9806      2.00000
     16       5.4657      2.00000
     17       7.1176      0.00000
     18       8.0026      0.00000
     19       8.0026      0.00000
     20       8.7492      0.00000
     21       8.7492      0.00000
     22       8.8836      0.00000
     23       9.0559      0.00000
     24       9.3045      0.00000
     25      10.4106      0.00000

 k-point    17 :       0.3636    0.2727    0.0000
  band No.  band energies     occupation 
      1      -5.2486      2.00000
      2      -4.1272      2.00000
      3      -3.4571      2.00000
      4      -2.7541      2.00000
      5      -1.0444      2.00000
      6      -0.2533      2.00000
      7       0.5677      2.00000
      8       1.4234      2.00000
      9       2.0333      2.00000
     10       2.2793      2.00000
     11       2.5897      2.00000
     12       3.2080      2.00000
     13       3.5373      2.00000
     14       3.5596      2.00000
     15       3.6357      2.00000
     16       5.1885      2.00000
     17       7.4908      0.00000
     18       8.1479      0.00000
     19       8.8749      0.00000
     20       8.8992      0.00000
     21       9.0453      0.00000
     22       9.1903      0.00000
     23       9.5282      0.00000
     24       9.9933      0.00000
     25      10.1384      0.00000

 k-point    18 :       0.4545    0.2727    0.0000
  band No.  band energies     occupation 
      1      -4.9378      2.00000
      2      -4.5628      2.00000
      3      -3.2418      2.00000
      4      -3.0024      2.00000
      5      -0.7820      2.00000
      6      -0.5123      2.00000
      7       1.1449      2.00000
      8       1.5192      2.00000
      9       1.7122      2.00000
     10       1.7296      2.00000
     11       2.8504      2.00000
     12       3.1771      2.00000
     13       3.3146      2.00000
     14       3.4482      2.00000
     15       4.1703      2.00000
     16       4.7157      2.00000
     17       8.1684      0.00000
     18       8.3512      0.00000
     19       8.6003      0.00000
     20       9.0332      0.00000
     21       9.4168      0.00000
     22       9.7024      0.00000
     23       9.8805      0.00000
     24       9.9585      0.00000
     25      10.3758      0.00000

 k-point    19 :       0.3636    0.3636    0.0000
  band No.  band energies     occupation 
      1      -5.0104      2.00000
      2      -3.9258      2.00000
      3      -3.9258      2.00000
      4      -3.0772      2.00000
      5      -0.7465      2.00000
      6       0.2473      2.00000
      7       0.2473      2.00000
      8       1.4581      2.00000
      9       1.7556      2.00000
     10       2.1979      2.00000
     11       2.1979      2.00000
     12       3.1394      2.00000
     13       3.7563      2.00000
     14       3.7563      2.00000
     15       3.8441      2.00000
     16       5.1371      2.00000
     17       7.5411      0.00000
     18       8.8169      0.00000
     19       9.0363      0.00000
     20       9.0364      0.00000
     21       9.5114      0.00000
     22       9.5114      0.00000
     23       9.5721      0.00000
     24       9.8716      0.00000
     25      10.0203      0.00000

 k-point    20 :       0.4545    0.3636    0.0000
  band No.  band energies     occupation 
      1      -4.7081      2.00000
      2      -4.3450      2.00000
      3      -3.6770      2.00000
      4      -3.3900      2.00000
      5      -0.4273      2.00000
      6      -0.0918      2.00000
      7       0.7424      2.00000
      8       1.2430      2.00000
      9       1.6104      2.00000
     10       1.8633      2.00000
     11       2.4436      2.00000
     12       2.7613      2.00000
     13       3.8790      2.00000
     14       3.9396      2.00000
     15       4.3225      2.00000
     16       4.8207      2.00000
     17       7.9501      0.00000
     18       8.6473      0.00000
     19       8.8548      0.00000
     20       9.1172      0.00000
     21       9.2241      0.00000
     22       9.4457      0.00000
     23      10.0060      0.00000
     24      10.4807      0.00000
     25      10.6395      0.00000

 k-point    21 :       0.4545    0.4545    0.0000
  band No.  band energies     occupation 
      1      -4.4180      2.00000
      2      -4.0721      2.00000
      3      -4.0721      2.00000
      4      -3.7507      2.00000
      5      -0.0547      2.00000
      6       0.3372      2.00000
      7       0.3372      2.00000
      8       0.7820      2.00000
      9       1.8048      2.00000
     10       2.0878      2.00000
     11       2.0878      2.00000
     12       2.3916      2.00000
     13       4.2718      2.00000
     14       4.3844      2.00000
     15       4.3844      2.00000
     16       4.7211      2.00000
     17       8.0287      0.00000
     18       8.4417      0.00000
     19       8.4417      0.00000
     20       8.5000      0.00000
     21      10.1680      0.00000
     22      10.1680      0.00000
     23      10.2320      0.00000
     24      10.5615      0.00000
     25      11.0332      0.00000

 k-point    22 :       0.0909    0.0909    0.0909
  band No.  band energies     occupation 
      1      -6.0257      2.00000
      2      -2.6358      2.00000
      3      -2.6358      2.00000
      4      -2.6358      2.00000
      5      -1.2633      2.00000
      6      -1.2633      2.00000
      7      -1.2633      2.00000
      8       2.6038      2.00000
      9       2.6038      2.00000
     10       2.6038      2.00000
     11       3.0644      2.00000
     12       3.0644      2.00000
     13       3.0644      2.00000
     14       4.8367      2.00000
     15       5.6546      2.00000
     16       5.6546      2.00000
     17       6.6141      0.00000
     18       6.6141      0.00000
     19       6.6141      0.00000
     20       7.2667      0.00000
     21       7.2667      0.00000
     22       7.2667      0.00000
     23       8.4195      0.00000
     24       8.6358      0.00000
     25       8.6358      0.00000

 k-point    23 :       0.1818    0.0909    0.0909
  band No.  band energies     occupation 
      1      -5.9179      2.00000
      2      -3.2554      2.00000
      3      -2.5909      2.00000
      4      -2.5909      2.00000
      5      -1.2617      2.00000
      6      -1.2617      2.00000
      7      -0.5364      2.00000
      8       2.2731      2.00000
      9       2.2731      2.00000
     10       2.7286      2.00000
     11       3.0225      2.00000
     12       3.0225      2.00000
     13       3.1608      2.00000
     14       4.2710      2.00000
     15       5.3286      2.00000
     16       5.5273      2.00000
     17       6.6694      0.00000
     18       6.8911      0.00000
     19       6.8911      0.00000
     20       7.4950      0.00000
     21       7.9285      0.00000
     22       7.9285      0.00000
     23       8.3615      0.00000
     24       8.6865      0.00000
     25       9.0734      0.00000

 k-point    24 :       0.2727    0.0909    0.0909
  band No.  band energies     occupation 
      1      -5.7388      2.00000
      2      -3.8239      2.00000
      3      -2.5273      2.00000
      4      -2.5273      2.00000
      5      -1.2651      2.00000
      6      -1.2651      2.00000
      7       0.2039      2.00000
      8       1.9911      2.00000
      9       1.9911      2.00000
     10       2.8478      2.00000
     11       2.8478      2.00000
     12       2.9382      2.00000
     13       3.3204      2.00000
     14       3.6589      2.00000
     15       4.9301      2.00000
     16       5.1161      2.00000
     17       6.7811      0.00000
     18       7.4781      0.00000
     19       7.4781      0.00000
     20       7.8531      0.00000
     21       8.1045      0.00000
     22       8.7493      0.00000
     23       8.7493      0.00000
     24       9.1335      0.00000
     25       9.6546      0.00000

 k-point    25 :       0.3636    0.0909    0.0909
  band No.  band energies     occupation 
      1      -5.4894      2.00000
      2      -4.3353      2.00000
      3      -2.4628      2.00000
      4      -2.4628      2.00000
      5      -1.2756      2.00000
      6      -1.2756      2.00000
      7       0.9425      2.00000
      8       1.7988      2.00000
      9       1.7988      2.00000
     10       2.6562      2.00000
     11       2.6562      2.00000
     12       3.0220      2.00000
     13       3.2342      2.00000
     14       3.5412      2.00000
     15       4.5270      2.00000
     16       4.5963      2.00000
     17       6.9547      0.00000
     18       7.7853      0.00000
     19       8.2742      0.00000
     20       8.2742      0.00000
     21       8.3280      0.00000
     22       9.6645      0.00000
     23       9.6645      0.00000
     24       9.7019      0.00000
     25      10.3098      0.00000

 k-point    26 :       0.4545    0.0909    0.0909
  band No.  band energies     occupation 
      1      -5.1710      2.00000
      2      -4.7855      2.00000
      3      -2.4210      2.00000
      4      -2.4210      2.00000
      5      -1.2861      2.00000
      6      -1.2861      2.00000
      7       1.6644      2.00000
      8       1.7057      2.00000
      9       1.7057      2.00000
     10       2.3586      2.00000
     11       2.5361      2.00000
     12       2.5361      2.00000
     13       3.6167      2.00000
     14       3.8200      2.00000
     15       4.0786      2.00000
     16       4.1515      2.00000
     17       7.1874      0.00000
     18       7.4698      0.00000
     19       8.9041      0.00000
     20       9.1892      0.00000
     21       9.1892      0.00000
     22       9.5298      0.00000
     23      10.1764      0.00000
     24      10.1766      0.00000
     25      10.7616      0.00000

 k-point    27 :       0.1818    0.1818    0.0909
  band No.  band energies     occupation 
      1      -5.8110      2.00000
      2      -3.1895      2.00000
      3      -3.1895      2.00000
      4      -2.5792      2.00000
      5      -1.2550      2.00000
      6      -0.5891      2.00000
      7      -0.5891      2.00000
      8       1.9463      2.00000
      9       2.4218      2.00000
     10       2.4218      2.00000
     11       3.1336      2.00000
     12       3.1336      2.00000
     13       3.2342      2.00000
     14       3.7095      2.00000
     15       5.0759      2.00000
     16       5.5768      2.00000
     17       6.8381      0.00000
     18       6.9839      0.00000
     19       6.9839      0.00000
     20       8.1082      0.00000
     21       8.1082      0.00000
     22       8.3958      0.00000
     23       8.6863      0.00000
     24       8.8029      0.00000
     25       9.0995      0.00000

 k-point    28 :       0.2727    0.1818    0.0909
  band No.  band energies     occupation 
      1      -5.6334      2.00000
      2      -3.7447      2.00000
      3      -3.0864      2.00000
      4      -2.5794      2.00000
      5      -1.2345      2.00000
      6      -0.6821      2.00000
      7       0.0806      2.00000
      8       1.7230      2.00000
      9       2.1477      2.00000
     10       2.6671      2.00000
     11       3.0071      2.00000
     12       3.1222      2.00000
     13       3.2468      2.00000
     14       3.3222      2.00000
     15       4.6699      2.00000
     16       5.3558      2.00000
     17       7.1360      0.00000
     18       7.1598      0.00000
     19       7.5784      0.00000
     20       8.4078      0.00000
     21       8.4163      0.00000
     22       8.8930      0.00000
     23       8.9043      0.00000
     24       9.5388      0.00000
     25       9.5570      0.00000

 k-point    29 :       0.3636    0.1818    0.0909
  band No.  band energies     occupation 
      1      -5.3864      2.00000
      2      -4.2469      2.00000
      3      -2.9573      2.00000
      4      -2.6148      2.00000
      5      -1.1834      2.00000
      6      -0.8111      2.00000
      7       0.7297      2.00000
      8       1.6239      2.00000
      9       1.9249      2.00000
     10       2.5353      2.00000
     11       2.8995      2.00000
     12       2.9980      2.00000
     13       3.1239      2.00000
     14       3.5955      2.00000
     15       4.2375      2.00000
     16       4.9166      2.00000
     17       7.3433      0.00000
     18       7.7939      0.00000
     19       8.1889      0.00000
     20       8.3723      0.00000
     21       8.8241      0.00000
     22       9.3378      0.00000
     23       9.7871      0.00000
     24      10.1518      0.00000
     25      10.4780      0.00000

 k-point    30 :       0.4545    0.1818    0.0909
  band No.  band energies     occupation 
      1      -5.0713      2.00000
      2      -4.6905      2.00000
      3      -2.8200      2.00000
      4      -2.6980      2.00000
      5      -1.0887      2.00000
      6      -0.9564      2.00000
      7       1.3507      2.00000
      8       1.6422      2.00000
      9       1.7521      2.00000
     10       1.9485      2.00000
     11       2.8864      2.00000
     12       2.9760      2.00000
     13       3.3887      2.00000
     14       3.8074      2.00000
     15       3.9627      2.00000
     16       4.4188      2.00000
     17       7.5985      0.00000
     18       7.8889      0.00000
     19       8.6298      0.00000
     20       9.2622      0.00000
     21       9.3423      0.00000
     22       9.6373      0.00000
     23       9.7796      0.00000
     24      10.2671      0.00000
     25      10.3151      0.00000

 k-point    31 :       0.2727    0.2727    0.0909
  band No.  band energies     occupation 
      1      -5.4587      2.00000
      2      -3.6170      2.00000
[...]
     20       8.1022      0.00000
     21       9.1425      0.00000
     22       9.3288      0.00000
     23       9.3288      0.00000
     24       9.3352      0.00000
     25      10.6357      0.00000

 k-point    45 :       0.4545    0.3636    0.1818
  band No.  band energies     occupation 
      1      -4.6899      2.00000
      2      -4.3501      2.00000
      3      -3.7634      2.00000
      4      -3.5524      2.00000
      5      -0.9320      2.00000
      6      -0.6974      2.00000
      7      -0.0209      2.00000
      8       0.3916      2.00000
      9       2.1639      2.00000
     10       2.3813      2.00000
     11       3.0040      2.00000
     12       3.4020      2.00000
     13       3.8152      2.00000
     14       3.8593      2.00000
     15       4.1535      2.00000
     16       4.5781      2.00000
     17       7.8537      0.00000
     18       8.1576      0.00000
     19       8.2733      0.00000
     20       8.4671      0.00000
     21       8.9115      0.00000
     22       8.9514      0.00000
     23       8.9778      0.00000
     24       9.7406      0.00000
     25       9.7626      0.00000

 k-point    46 :       0.4545    0.4545    0.1818
  band No.  band energies     occupation 
      1      -4.4216      2.00000
      2      -4.1083      2.00000
      3      -4.1083      2.00000
      4      -3.8356      2.00000
      5      -0.6994      2.00000
      6      -0.3905      2.00000
      7      -0.3905      2.00000
      8      -0.0256      2.00000
      9       2.4248      2.00000
     10       2.7119      2.00000
     11       2.7119      2.00000
     12       3.0542      2.00000
     13       4.1507      2.00000
     14       4.2421      2.00000
     15       4.2421      2.00000
     16       4.5306      2.00000
     17       7.8800      0.00000
     18       8.0983      0.00000
     19       8.1833      0.00000
     20       8.1833      0.00000
     21       9.1682      0.00000
     22       9.1682      0.00000
     23       9.4152      0.00000
     24       9.5030      0.00000
     25       9.8760      0.00000

 k-point    47 :       0.2727    0.2727    0.2727
  band No.  band energies     occupation 
      1      -5.2724      2.00000
      2      -3.6097      2.00000
      3      -3.6097      2.00000
      4      -3.6097      2.00000
      5      -0.7400      2.00000
      6      -0.7400      2.00000
      7      -0.7400      2.00000
      8       1.3315      2.00000
      9       2.3007      2.00000
     10       2.3007      2.00000
     11       2.3007      2.00000
     12       3.5634      2.00000
     13       3.5634      2.00000
     14       3.5634      2.00000
     15       4.7950      2.00000
     16       4.7950      2.00000
     17       7.2951      0.00000
     18       7.2951      0.00000
     19       7.2951      0.00000
     20       7.4903      0.00000
     21       9.1311      0.00000
     22       9.1311      0.00000
     23      10.5131      0.00000
     24      10.5131      0.00000
     25      10.5131      0.00000

 k-point    48 :       0.3636    0.2727    0.2727
  band No.  band energies     occupation 
      1      -5.0444      2.00000
      2      -4.0279      2.00000
      3      -3.5368      2.00000
      4      -3.5368      2.00000
      5      -0.9584      2.00000
      6      -0.9584      2.00000
      7      -0.4077      2.00000
      8       0.8303      2.00000
      9       2.3708      2.00000
     10       2.3708      2.00000
     11       2.9033      2.00000
     12       3.6464      2.00000
     13       3.6464      2.00000
     14       3.7498      2.00000
     15       4.5205      2.00000
     16       4.6486      2.00000
     17       7.5409      0.00000
     18       7.5836      0.00000
     19       7.6260      0.00000
     20       7.6260      0.00000
     21       8.9533      0.00000
     22       9.3792      0.00000
     23       9.9390      0.00000
     24       9.9390      0.00000
     25      10.0063      0.00000

 k-point    49 :       0.4545    0.2727    0.2727
  band No.  band energies     occupation 
      1      -4.7569      2.00000
      2      -4.4152      2.00000
      3      -3.4894      2.00000
      4      -3.4894      2.00000
      5      -1.0858      2.00000
      6      -1.0858      2.00000
      7      -0.0398      2.00000
      8       0.3720      2.00000
      9       2.4242      2.00000
     10       2.4242      2.00000
     11       3.5488      2.00000
     12       3.6527      2.00000
     13       3.6527      2.00000
     14       3.9791      2.00000
     15       4.1685      2.00000
     16       4.2411      2.00000
     17       7.7792      0.00000
     18       7.8283      0.00000
     19       8.2252      0.00000
     20       8.2252      0.00000
     21       8.9149      0.00000
     22       9.0528      0.00000
     23       9.0528      0.00000
     24       9.3208      0.00000
     25       9.7034      0.00000

 k-point    50 :       0.3636    0.3636    0.2727
  band No.  band energies     occupation 
      1      -4.8271      2.00000
      2      -3.8920      2.00000
      3      -3.8920      2.00000
      4      -3.5578      2.00000
      5      -1.1013      2.00000
      6      -0.7343      2.00000
      7      -0.7343      2.00000
      8       0.3529      2.00000
      9       2.5735      2.00000
     10       2.9602      2.00000
     11       2.9602      2.00000
     12       3.8647      2.00000
     13       3.8647      2.00000
     14       3.8779      2.00000
     15       4.3010      2.00000
     16       4.7227      2.00000
     17       7.4924      0.00000
     18       7.6363      0.00000
     19       7.8256      0.00000
     20       7.8256      0.00000
     21       9.0609      0.00000
     22       9.2190      0.00000
     23       9.3518      0.00000
     24       9.3518      0.00000
     25       9.8820      0.00000

 k-point    51 :       0.4545    0.3636    0.2727
  band No.  band energies     occupation 
      1      -4.5560      2.00000
      2      -4.2396      2.00000
      3      -3.7502      2.00000
      4      -3.6305      2.00000
      5      -1.1121      2.00000
      6      -0.9819      2.00000
      7      -0.4373      2.00000
      8      -0.0728      2.00000
      9       2.7605      2.00000
     10       2.9035      2.00000
     11       3.5171      2.00000
     12       3.9477      2.00000
     13       3.9623      2.00000
     14       3.9722      2.00000
     15       4.1595      2.00000
     16       4.5053      2.00000
     17       7.7149      0.00000
     18       7.9204      0.00000
     19       7.9405      0.00000
     20       8.2413      0.00000
     21       8.7624      0.00000
     22       8.9224      0.00000
     23       8.9391      0.00000
     24       9.2064      0.00000
     25       9.4350      0.00000

 k-point    52 :       0.4545    0.4545    0.2727
  band No.  band energies     occupation 
      1      -4.3108      2.00000
      2      -4.0348      2.00000
      3      -4.0348      2.00000
      4      -3.8219      2.00000
      5      -1.0007      2.00000
      6      -0.7670      2.00000
      7      -0.7670      2.00000
      8      -0.4582      2.00000
      9       3.0584      2.00000
     10       3.3184      2.00000
     11       3.3184      2.00000
     12       3.6669      2.00000
     13       4.2183      2.00000
     14       4.2835      2.00000
     15       4.2835      2.00000
     16       4.5222      2.00000
     17       7.7537      0.00000
     18       7.8724      0.00000
     19       7.9743      0.00000
     20       7.9743      0.00000
     21       8.8982      0.00000
     22       8.8982      0.00000
     23       9.1296      0.00000
     24       9.2143      0.00000
     25       9.2612      0.00000

 k-point    53 :       0.3636    0.3636    0.3636
  band No.  band energies     occupation 
      1      -4.6255      2.00000
      2      -3.8177      2.00000
      3      -3.8177      2.00000
      4      -3.8177      2.00000
      5      -1.0085      2.00000
      6      -1.0085      2.00000
      7      -1.0085      2.00000
      8      -0.1007      2.00000
      9       3.2323      2.00000
     10       3.2323      2.00000
     11       3.2323      2.00000
     12       4.0261      2.00000
     13       4.0261      2.00000
     14       4.0261      2.00000
     15       4.5661      2.00000
     16       4.5661      2.00000
     17       7.2308      0.00000
     18       7.7647      0.00000
     19       7.7647      0.00000
     20       7.7647      0.00000
     21       9.0809      0.00000
     22       9.0809      0.00000
     23       9.2300      0.00000
     24       9.2300      0.00000
     25       9.2300      0.00000

 k-point    54 :       0.4545    0.3636    0.3636
  band No.  band energies     occupation 
      1      -4.3792      2.00000
      2      -4.1024      2.00000
      3      -3.7692      2.00000
      4      -3.7692      2.00000
      5      -1.1618      2.00000
      6      -1.1618      2.00000
      7      -0.7987      2.00000
      8      -0.4902      2.00000
      9       3.3713      2.00000
     10       3.3713      2.00000
     11       3.8750      2.00000
     12       4.1273      2.00000
     13       4.1273      2.00000
     14       4.2001      2.00000
     15       4.3859      2.00000
     16       4.3875      2.00000
     17       7.3680      0.00000
     18       7.6843      0.00000
     19       7.8906      0.00000
     20       7.8906      0.00000
     21       8.8632      0.00000
     22       8.8632      0.00000
     23       8.8834      0.00000
     24       8.9227      0.00000
     25       9.2196      0.00000

 k-point    55 :       0.4545    0.4545    0.3636
  band No.  band energies     occupation 
      1      -4.1732      2.00000
      2      -3.9598      2.00000
      3      -3.9598      2.00000
      4      -3.8403      2.00000
      5      -1.1906      2.00000
      6      -1.0617      2.00000
      7      -1.0617      2.00000
      8      -0.8287      2.00000
      9       3.7009      2.00000
     10       3.8836      2.00000
     11       3.8836      2.00000
     12       4.2020      2.00000
     13       4.2991      2.00000
     14       4.3271      2.00000
     15       4.3271      2.00000
     16       4.4970      2.00000
     17       7.3195      0.00000
     18       7.5876      0.00000
     19       7.5876      0.00000
     20       7.6552      0.00000
     21       8.8692      0.00000
     22       8.8692      0.00000
     23       8.9415      0.00000
     24       9.0297      0.00000
     25       9.0342      0.00000

 k-point    56 :       0.4545    0.4545    0.4545
  band No.  band energies     occupation 
      1      -4.0304      2.00000
      2      -3.9110      2.00000
      3      -3.9110      2.00000
      4      -3.9110      2.00000
      5      -1.2242      2.00000
      6      -1.2242      2.00000
      7      -1.2242      2.00000
      8      -1.0957      2.00000
      9       4.2338      2.00000
     10       4.2338      2.00000
     11       4.2338      2.00000
     12       4.3803      2.00000
     13       4.3803      2.00000
     14       4.3803      2.00000
     15       4.4492      2.00000
     16       4.4492      2.00000
     17       7.0957      0.00000
     18       7.2771      0.00000
     19       7.2771      0.00000
     20       7.2771      0.00000
     21       8.9173      0.00000
     22       8.9173      0.00000
     23       8.9173      0.00000
     24       8.9786      0.00000
     25       8.9786      0.00000


--------------------------------------------------------------------------------------------------------


 soft charge-density along one line, spin component           1
         0         1         2         3         4         5         6         7         8         9
 total charge-density along one line
 
 pseudopotential strength for first ion, spin component:           1
 18.438  25.724   0.000   0.000  -0.000   0.000   0.000  -0.000
 25.724  35.894   0.000   0.000  -0.000   0.000   0.000  -0.000
  0.000   0.000   4.181   0.000  -0.000   7.791   0.000  -0.000
  0.000   0.000   0.000   4.181  -0.000   0.000   7.791  -0.000
 -0.000  -0.000  -0.000  -0.000   4.181  -0.000  -0.000   7.791
  0.000   0.000   7.791   0.000  -0.000  14.529   0.000  -0.000
  0.000   0.000   0.000   7.791  -0.000   0.000  14.529  -0.000
 -0.000  -0.000  -0.000  -0.000   7.791  -0.000  -0.000  14.529
 total augmentation occupancy for first ion, spin component:           1
  5.540  -2.071   0.000   0.000  -0.000  -0.000  -0.000  -0.000
 -2.071   0.891   0.000   0.000   0.000  -0.000   0.000   0.000
 -0.000   0.000   2.903   0.000   0.000  -0.649  -0.000   0.000
 -0.000  -0.000   0.000   2.903   0.000  -0.000  -0.649  -0.000
 -0.000  -0.000   0.000   0.000   2.903   0.000  -0.000  -0.649
  0.000   0.000  -0.649  -0.000   0.000   0.153   0.000  -0.000
  0.000  -0.000  -0.000  -0.649  -0.000   0.000   0.153   0.000
  0.000   0.000   0.000  -0.000  -0.649  -0.000   0.000   0.153


------------------------ aborting loop because EDIFF is reached ----------------------------------------


    CHARGE:  cpu time    0.0433: real time    0.0434
    FORLOC:  cpu time    0.0007: real time    0.0007
    FORNL :  cpu time    0.0903: real time    0.0906
    STRESS:  cpu time    0.1996: real time    0.2000
    FORCOR:  cpu time    0.0078: real time    0.0078
    FORHAR:  cpu time    0.0022: real time    0.0022
    MIXING:  cpu time    0.0006: real time    0.0006
    OFIELD:  cpu time    0.0000: real time    0.0000

  FORCE on cell =-STRESS in cart. coord.  units (eV):
  Direction    XX          YY          ZZ          XY          YZ          ZX
  --------------------------------------------------------------------------------------
  Alpha Z    13.16879    13.16879    13.16879
  Ewald    -302.56363  -302.56363  -302.56363    -0.00000     0.00000    -0.00000
  Hartree    20.23360    20.23360    20.23360    -0.00000    -0.00000    -0.00000
  E(xc)    -100.97456  -100.97456  -100.97456    -0.00000    -0.00000     0.00000
  Local    -118.06209  -118.06209  -118.06209    -0.00000     0.00000     0.00000
  n-local   309.68962   313.16441   306.55295    -2.94288    -2.29432    -1.50632
  augment   -46.59839   -46.59839   -46.59839     0.00000     0.00000    -0.00000
  Kinetic   217.74180   229.54011   227.61482    -3.73601    -5.28146    -2.56049
  Fock        0.00000     0.00000     0.00000     0.00000     0.00000     0.00000
  -------------------------------------------------------------------------------------
  Total      -0.02836    -0.02836    -0.02836     0.00000     0.00000    -0.00000
  in kB      -0.27777    -0.27777    -0.27777     0.00000     0.00000    -0.00000
  external pressure =       -0.28 kB  Pullay stress =        0.00 kB


 VOLUME and BASIS-vectors are now :
 -----------------------------------------------------------------------------
  energy-cutoff  :      500.00
  volume of cell :      163.60
      direct lattice vectors                 reciprocal lattice vectors
     5.469272092 -0.000000000  0.000000000     0.182839687  0.000000000 -0.000000000
    -0.000000000  5.469272092  0.000000000     0.000000000  0.182839687 -0.000000000
     0.000000000  0.000000000  5.469272092    -0.000000000 -0.000000000  0.182839687

  length of vectors
     5.469272092  5.469272092  5.469272092     0.182839687  0.182839687  0.182839687


 FORCES acting on ions
    electron-ion (+dipol)            ewald-force                    non-local-force                 convergence-correction
 -----------------------------------------------------------------------------------------------
   -.715E-14 -.155E-14 -.246E-14   0.355E-14 0.000E+00 0.711E-14   -.165E-16 0.954E-17 0.954E-17   0.465E-14 0.671E-16 -.268E-14
   -.149E-13 0.803E-14 0.515E-14   0.355E-14 0.000E+00 0.355E-14   0.113E-16 0.182E-16 0.234E-16   0.438E-14 -.499E-15 -.290E-16
   -.974E-14 -.157E-14 -.353E-12   0.355E-14 0.000E+00 0.355E-14   0.113E-16 -.269E-16 0.529E-16   -.835E-14 -.252E-18 0.213E-15
   -.149E-13 -.179E-12 -.131E-12   0.355E-14 0.000E+00 0.711E-14   0.954E-17 0.867E-18 0.304E-16   -.844E-14 -.109E-14 -.251E-14
   0.344E-13 0.632E-13 0.128E-13   -.734E-14 -.526E-15 -.376E-14   -.520E-17 -.130E-17 -.321E-16   0.464E-15 -.295E-14 -.118E-14
   0.286E-13 0.687E-13 -.359E-12   -.519E-14 -.640E-15 -.376E-14   0.156E-16 -.434E-18 -.269E-16   -.545E-14 -.899E-15 -.638E-15
   0.227E-13 -.486E-12 0.224E-12   -.126E-14 0.560E-15 -.331E-14   -.693E-17 -.781E-17 -.217E-16   -.573E-14 -.309E-14 0.196E-14
   0.312E-13 0.133E-12 0.254E-13   -.752E-14 0.446E-15 -.331E-14   -.139E-16 0.260E-16 -.564E-16   0.207E-15 -.583E-15 0.177E-14
 -----------------------------------------------------------------------------------------------
   0.702E-13 -.396E-12 -.578E-12   -.710E-14 -.159E-15 0.718E-14   0.520E-17 0.182E-16 -.208E-16   -.183E-13 -.906E-14 -.310E-14
 
 
 POSITION                                       TOTAL-FORCE (eV/Angst)
 -----------------------------------------------------------------------------------
     -0.00000     -0.00000      0.00000        -0.000000      0.000000      0.000000
      0.00000      2.73464      2.73464        -0.000000      0.000000      0.000000
      2.73464     -0.00000      2.73464         0.000000     -0.000000     -0.000000
      2.73464      2.73464      0.00000         0.000000      0.000000      0.000000
      1.36732      1.36732      1.36732        -0.000000     -0.000000     -0.000000
      4.10195      4.10195      1.36732         0.000000     -0.000000     -0.000000
      4.10195      1.36732      4.10195         0.000000     -0.000000     -0.000000
      1.36732      4.10195      4.10195        -0.000000      0.000000      0.000000
 -----------------------------------------------------------------------------------
    total drift:                                0.000000     -0.000000     -0.000000


--------------------------------------------------------------------------------------------------------



  FREE ENERGIE OF THE ION-ELECTRON SYSTEM (eV)
  ---------------------------------------------------
  free  energy   TOTEN  =       -43.39939786 eV

  energy  without entropy=      -43.39939782  energy(sigma->0) =      -43.39939784
 
 d Force = 0.0000000E+00[ 0.000E+00, 0.000E+00]  d Energy = 0.1053833E+00-0.105E+00
 d Force = 0.0000000E+00[ 0.000E+00, 0.000E+00]  d Ewald  = 0.1461318E+02-0.146E+02


--------------------------------------------------------------------------------------------------------


    POTLOK:  cpu time    0.0087: real time    0.0087


--------------------------------------------------------------------------------------------------------




--------------------------------------------------------------------------------------------------------


  
 reached required accuracy - stopping structural energy minimisation
 writing wavefunctions
     LOOP+:  cpu time    5.9318: real time    6.1716
    4ORBIT:  cpu time    0.0000: real time    0.0000

 total amount of memory used by VASP on root node    36060. kBytes
========================================================================

   base      :      30000. kBytes
   nonl-proj :       1985. kBytes
   fftplans  :        684. kBytes
   grid      :        947. kBytes
   one-center:          3. kBytes
   wavefun   :       2441. kBytes
 
  
  
 General timing and accounting informations for this job:
 ========================================================
  
                  Total CPU time used (sec):       20.688
                            User time (sec):       19.863
                          System time (sec):        0.825
                         Elapsed time (sec):       23.206
  
                   Maximum memory used (kb):      142640.
                   Average memory used (kb):           0.
  
                          Minor page faults:        31394
                          Major page faults:           48
                 Voluntary context switches:         8729
