<?xml version="1.0" encoding="ISO-8859-1"?>
<modeling>
 <generator>
  <i name="program" type="string">vasp </i>
  <i name="version" type="string">5.4.1  </i>
  <i name="subversion" type="string">05Feb16 (build Feb 24 2020 14:33:01) complex                          parallel </i>
  <i name="platform" type="string">IFC91_ompi </i>
  <i name="date" type="string">2020 02 27 </i>
  <i name="time" type="string">23:40:03 </i>
 </generator>
 <incar>
  <i type="string" name="SYSTEM"> diamond Si</i>
  <i type="int" name="ISTART">     0</i>
  <i type="string" name="PREC">accurate</i>
  <i type="int" name="NSIM">     4</i>
  <i type="int" name="ICHARG">     2</i>
  <i type="int" name="NELM">    60</i>
  <i type="int" name="NELMDL">     3</i>
  <i type="int" name="NELMIN">     0</i>
  <i type="int" name="IBRION">     2</i>
  <i name="EDIFF">      0.00010000</i>
  <i name="EDIFFG">     -0.01000000</i>
  <i type="int" name="NSW">     9</i>
  <i type="int" name="ISIF">     3</i>
  <i name="ENCUT">    500.00000000</i>
  <i name="POTIM">      1.00000000</i>
  <i type="logical" name="LPLANE"> F  </i>
  <i type="int" name="ISMEAR">     0</i>
  <i name="SIGMA">      0.10000000</i>
  <v type="int" name="KPOINT_BSE">    -1     0     0     0</v>
  <i type="int" name="NELM">    60</i>
 </incar>
 <kpoints>
  <generation param="Monkhorst-Pack">
   <v type="int" name="divisions">      11       11       11 </v>
   <v name="usershift">      0.00000000       0.00000000       0.00000000 </v>
   <v name="genvec1">      0.09090909       0.00000000       0.00000000 </v>
   <v name="genvec2">      0.00000000       0.09090909       0.00000000 </v>
   <v name="genvec3">      0.00000000       0.00000000       0.09090909 </v>
   <v name="shift">      0.00000000       0.00000000       0.00000000 </v>
  </generation>
  <varray name="kpointlist" >
   <v>       0.00000000       0.00000000       0.00000000 </v>
   <v>       0.09090909       0.00000000       0.00000000 </v>
   <v>       0.18181818       0.00000000       0.00000000 </v>
   <v>       0.27272727       0.00000000       0.00000000 </v>
   <v>       0.36363636       0.00000000       0.00000000 </v>
   <v>       0.45454545       0.00000000       0.00000000 </v>
   <v>       0.09090909       0.09090909       0.00000000 </v>
   <v>       0.18181818       0.09090909       0.00000000 </v>
   <v>       0.27272727       0.09090909       0.00000000 </v>
   <v>       0.36363636       0.09090909       0.00000000 </v>
   <v>       0.45454545       0.09090909       0.00000000 </v>
   <v>       0.18181818       0.18181818       0.00000000 </v>
   <v>       0.27272727       0.18181818       0.00000000 </v>
   <v>       0.36363636       0.18181818       0.00000000 </v>
   <v>       0.45454545       0.18181818       0.00000000 </v>
   <v>       0.27272727       0.27272727       0.00000000 </v>
   <v>       0.36363636       0.27272727       0.00000000 </v>
   <v>       0.45454545       0.27272727       0.00000000 </v>
   <v>       0.36363636       0.36363636       0.00000000 </v>
   <v>       0.45454545       0.36363636       0.00000000 </v>
   <v>       0.45454545       0.45454545       0.00000000 </v>
   <v>       0.09090909       0.09090909       0.09090909 </v>
   <v>       0.18181818       0.09090909       0.09090909 </v>
   <v>       0.27272727       0.09090909       0.09090909 </v>
   <v>       0.36363636       0.09090909       0.09090909 </v>
   <v>       0.45454545       0.09090909       0.09090909 </v>
   <v>       0.18181818       0.18181818       0.09090909 </v>
   <v>       0.27272727       0.18181818       0.09090909 </v>
   <v>       0.36363636       0.18181818       0.09090909 </v>
   <v>       0.45454545       0.18181818       0.09090909 </v>
   <v>       0.27272727       0.27272727       0.09090909 </v>
   <v>       0.36363636       0.27272727       0.09090909 </v>
   <v>       0.45454545       0.27272727       0.09090909 </v>
   <v>       0.36363636       0.36363636       0.09090909 </v>
   <v>       0.45454545       0.36363636       0.09090909 </v>
   <v>       0.45454545       0.45454545       0.09090909 </v>
   <v>       0.18181818       0.18181818       0.18181818 </v>
   <v>       0.27272727       0.18181818       0.18181818 </v>
   <v>       0.36363636       0.18181818       0.18181818 </v>
   <v>       0.45454545       0.18181818       0.18181818 </v>
   <v>       0.27272727       0.27272727       0.18181818 </v>
   <v>       0.36363636       0.27272727       0.18181818 </v>
   <v>       0.45454545       0.27272727       0.18181818 </v>
   <v>       0.36363636       0.36363636       0.18181818 </v>
   <v>       0.45454545       0.36363636       0.18181818 </v>
   <v>       0.45454545       0.45454545       0.18181818 </v>
   <v>       0.27272727       0.27272727       0.27272727 </v>
   <v>       0.36363636       0.27272727       0.27272727 </v>
   <v>       0.45454545       0.27272727       0.27272727 </v>
   <v>       0.36363636       0.36363636       0.27272727 </v>
   <v>       0.45454545       0.36363636       0.27272727 </v>
   <v>       0.45454545       0.45454545       0.27272727 </v>
   <v>       0.36363636       0.36363636       0.36363636 </v>
   <v>       0.45454545       0.36363636       0.36363636 </v>
   <v>       0.45454545       0.45454545       0.36363636 </v>
   <v>       0.45454545       0.45454545       0.45454545 </v>
  </varray>
  <varray name="weights" >
   <v>       0.00075131 </v>
   <v>       0.00450789 </v>
   <v>       0.00450789 </v>
   <v>       0.00450789 </v>
   <v>       0.00450789 </v>
   <v>       0.00450789 </v>
   <v>       0.00901578 </v>
   <v>       0.01803156 </v>
   <v>       0.01803156 </v>
   <v>       0.01803156 </v>
   <v>       0.01803156 </v>
   <v>       0.00901578 </v>
   <v>       0.01803156 </v>
   <v>       0.01803156 </v>
   <v>       0.01803156 </v>
   <v>       0.00901578 </v>
   <v>       0.01803156 </v>
   <v>       0.01803156 </v>
   <v>       0.00901578 </v>
   <v>       0.01803156 </v>
   <v>       0.00901578 </v>
   <v>       0.00601052 </v>
   <v>       0.01803156 </v>
   <v>       0.01803156 </v>
   <v>       0.01803156 </v>
   <v>       0.01803156 </v>
   <v>       0.01803156 </v>
   <v>       0.03606311 </v>
   <v>       0.03606311 </v>
   <v>       0.03606311 </v>
   <v>       0.01803156 </v>
   <v>       0.03606311 </v>
   <v>       0.03606311 </v>
   <v>       0.01803156 </v>
   <v>       0.03606311 </v>
   <v>       0.01803156 </v>
   <v>       0.00601052 </v>
   <v>       0.01803156 </v>
   <v>       0.01803156 </v>
   <v>       0.01803156 </v>
   <v>       0.01803156 </v>
   <v>       0.03606311 </v>
   <v>       0.03606311 </v>
   <v>       0.01803156 </v>
   <v>       0.03606311 </v>
   <v>       0.01803156 </v>
   <v>       0.00601052 </v>
   <v>       0.01803156 </v>
   <v>       0.01803156 </v>
   <v>       0.01803156 </v>
   <v>       0.03606311 </v>
   <v>       0.01803156 </v>
   <v>       0.00601052 </v>
   <v>       0.01803156 </v>
   <v>       0.01803156 </v>
   <v>       0.00601052 </v>
  </varray>
 </kpoints>
 <parameters>
  <separator name="general" >
   <i type="string" name="SYSTEM">diamond Si</i>
   <i type="logical" name="LCOMPAT"> F  </i>
  </separator>
  <separator name="electronic" >
   <i type="string" name="PREC">accura</i>
   <i name="ENMAX">    500.00000000</i>
   <i name="ENAUG">    322.06900000</i>
   <i name="EDIFF">      0.00010000</i>
   <i type="int" name="IALGO">    38</i>
   <i type="int" name="IWAVPR">    11</i>
   <i type="int" name="NBANDS">    25</i>
   <i name="NELECT">     32.00000000</i>
   <i type="int" name="TURBO">     0</i>
   <i type="int" name="IRESTART">     0</i>
   <i type="int" name="NREBOOT">     0</i>
   <i type="int" name="NMIN">     0</i>
   <i name="EREF">      0.00000000</i>
   <separator name="electronic smearing" >
    <i type="int" name="ISMEAR">     0</i>
    <i name="SIGMA">      0.10000000</i>
    <i name="KSPACING">      0.50000000</i>
    <i type="logical" name="KGAMMA"> T  </i>
   </separator>
   <separator name="electronic projectors" >
    <i type="logical" name="LREAL"> F  </i>
    <v name="ROPT">      0.00000000</v>
    <i type="int" name="LMAXPAW">  -100</i>
    <i type="int" name="LMAXMIX">     2</i>
    <i type="logical" name="NLSPLINE"> F  </i>
   </separator>
   <separator name="electronic startup" >
    <i type="int" name="ISTART">     0</i>
    <i type="int" name="ICHARG">     2</i>
    <i type="int" name="INIWAV">     1</i>
   </separator>
   <separator name="electronic spin" >
    <i type="int" name="ISPIN">     1</i>
    <i type="logical" name="LNONCOLLINEAR"> F  </i>
    <v name="MAGMOM">      1.00000000      1.00000000      1.00000000      1.00000000      1.00000000      1.00000000      1.00000000      1.00000000</v>
    <i name="NUPDOWN">     -1.00000000</i>
    <i type="logical" name="LSORBIT"> F  </i>
    <v name="SAXIS">      0.00000000      0.00000000      1.00000000</v>
    <i type="logical" name="LSPIRAL"> F  </i>
    <v name="QSPIRAL">      0.00000000      0.00000000      0.00000000</v>
    <i type="logical" name="LZEROZ"> F  </i>
   </separator>
   <separator name="electronic exchange-correlation" >
    <i type="logical" name="LASPH"> F  </i>
    <i type="logical" name="LMETAGGA"> F  </i>
   </separator>
   <separator name="electronic convergence" >
    <i type="int" name="NELM">    60</i>
    <i type="int" name="NELMDL">     3</i>
    <i type="int" name="NELMIN">     0</i>
    <i name="ENINI">    500.00000000</i>
    <separator name="electronic convergence detail" >
     <i type="logical" name="LDIAG"> T  </i>
     <i type="logical" name="LSUBROT"> F  </i>
     <i name="WEIMIN">      0.00100000</i>
     <i name="EBREAK">      0.00000100</i>
     <i name="DEPER">      0.30000000</i>
     <i type="int" name="NRMM">     4</i>
     <i name="TIME">      0.40000000</i>
    </separator>
   </separator>
   <separator name="electronic mixer" >
    <i name="AMIX">      0.40000000</i>
    <i name="BMIX">      1.00000000</i>
    <i name="AMIN">      0.10000000</i>
    <i name="AMIX_MAG">      1.60000000</i>
    <i name="BMIX_MAG">      1.00000000</i>
    <separator name="electronic mixer details" >
     <i type="int" name="IMIX">     4</i>
     <i type="logical" name="MIXFIRST"> F  </i>
     <i type="int" name="MAXMIX">   -45</i>
     <i name="WC">    100.00000000</i>
     <i type="int" name="INIMIX">     1</i>
     <i type="int" name="MIXPRE">     1</i>
     <i type="int" name="MREMOVE">     5</i>
    </separator>
   </separator>
   <separator name="electronic dipolcorrection" >
    <i type="logical" name="LDIPOL"> F  </i>
    <i type="logical" name="LMONO"> F  </i>
    <i type="int" name="IDIPOL">     0</i>
    <i name="EPSILON">      1.00000000</i>
    <v name="DIPOL">   -100.00000000   -100.00000000   -100.00000000</v>
    <i name="EFIELD">      0.00000000</i>
   </separator>
  </separator>
  <separator name="grids" >
   <i type="int" name="NGX">    40</i>
   <i type="int" name="NGY">    40</i>
   <i type="int" name="NGZ">    40</i>
   <i type="int" name="NGXF">    80</i>
   <i type="int" name="NGYF">    80</i>
   <i type="int" name="NGZF">    80</i>
   <i type="logical" name="ADDGRID"> F  </i>
  </separator>
  <separator name="ionic" >
   <i type="int" name="NSW">     9</i>
   <i type="int" name="IBRION">     2</i>
   <i type="int" name="ISIF">     3</i>
   <i name="PSTRESS">      0.00000000</i>
   <i name="EDIFFG">     -0.01000000</i>
   <i type="int" name="NFREE">     1</i>
   <i name="POTIM">      1.00000000</i>
   <i name="SMASS">     -3.00000000</i>
   <i name="SCALEE">      1.00000000</i>
  </separator>
  <separator name="ionic md" >
   <i name="TEBEG">      0.00010000</i>
   <i name="TEEND">      0.00010000</i>
   <i type="int" name="NBLOCK">     1</i>
   <i type="int" name="KBLOCK">     9</i>
   <i type="int" name="NPACO">   256</i>
   <i name="APACO">     16.00000000</i>
  </separator>
  <separator name="symmetry" >
   <i type="int" name="ISYM">     2</i>
   <i name="SYMPREC">      0.00001000</i>
  </separator>
  <separator name="dos" >
   <i type="logical" name="LORBIT"> F  </i>
   <v name="RWIGS">     -1.00000000</v>
   <i type="int" name="NEDOS">   301</i>
   <i name="EMIN">     10.00000000</i>
   <i name="EMAX">    -10.00000000</i>
   <i name="EFERMI">      0.00000000</i>
  </separator>
  <separator name="writing" >
   <i type="int" name="NWRITE">     2</i>
   <i type="logical" name="LWAVE"> T  </i>
   <i type="logical" name="LCHARG"> T  </i>
   <i type="logical" name="LPARD"> F  </i>
   <i type="logical" name="LVTOT"> F  </i>
   <i type="logical" name="LVHAR"> F  </i>
   <i type="logical" name="LELF"> F  </i>
   <i type="logical" name="LOPTICS"> F  </i>
   <v name="STM">      0.00000000      0.00000000      0.00000000      0.00000000      0.00000000      0.00000000      0.00000000</v>
  </separator>
  <separator name="performance" >
   <i type="int" name="NPAR">     5</i>
   <i type="int" name="NSIM">     4</i>
   <i type="int" name="NBLK">    -1</i>
   <i type="logical" name="LPLANE"> F  </i>
   <i type="logical" name="LSCALAPACK"> T  </i>
   <i type="logical" name="LSCAAWARE"> F  </i>
   <i type="logical" name="LSCALU"> F  </i>
   <i type="logical" name="LASYNC"> F  </i>
   <i type="logical" name="LORBITALREAL"> F  </i>
  </separator>
  <separator name="miscellaneous" >
   <i type="int" name="IDIOT">     3</i>
   <i type="logical" name="LMUSIC"> F  </i>
   <v name="POMASS">     28.08500000</v>
   <v name="DARWINR">      0.00000000</v>
   <v name="DARWINV">      1.00000000</v>
   <i type="logical" name="LCORR"> T  </i>
  </separator>
  <i type="logical" name="GGA_COMPAT"> T  </i>
  <i type="logical" name="LBERRY"> F  </i>
  <i type="int" name="ICORELEVEL">     0</i>
  <i type="logical" name="LDAU"> F  </i>
  <i type="int" name="I_CONSTRAINED_M">     0</i>
  <separator name="electronic exchange-correlation" >
   <i type="string" name="GGA">--</i>
   <i type="int" name="VOSKOWN">     0</i>
   <i type="logical" name="LHFCALC"> F  </i>
   <i type="string" name="PRECFOCK"></i>
   <i type="logical" name="LSYMGRAD"> F  </i>
   <i type="logical" name="LHFONE"> F  </i>
   <i type="logical" name="LRHFCALC"> F  </i>
   <i type="logical" name="LTHOMAS"> F  </i>
   <i type="logical" name="LMODELHF"> F  </i>
   <i name="ENCUT4O">     -1.00000000</i>
   <i type="int" name="EXXOEP">     0</i>
   <i type="int" name="FOURORBIT">     0</i>
   <i name="AEXX">      0.00000000</i>
   <i name="HFALPHA">      0.00000000</i>
   <i name="MCALPHA">      0.00000000</i>
   <i name="ALDAX">      1.00000000</i>
   <i name="AGGAX">      1.00000000</i>
   <i name="ALDAC">      1.00000000</i>
   <i name="AGGAC">      1.00000000</i>
   <i type="int" name="NKREDX">     1</i>
   <i type="int" name="NKREDY">     1</i>
   <i type="int" name="NKREDZ">     1</i>
   <i type="logical" name="SHIFTRED"> F  </i>
   <i type="logical" name="ODDONLY"> F  </i>
   <i type="logical" name="EVENONLY"> F  </i>
   <i type="int" name="LMAXFOCK">     0</i>
   <i type="int" name="NMAXFOCKAE">     0</i>
   <i type="logical" name="LFOCKAEDFT"> F  </i>
   <i name="HFSCREEN">      0.00000000</i>
   <i name="HFSCREENC">      0.00000000</i>
   <i type="int" name="NBANDSGWLOW">     0</i>
  </separator>
  <separator name="vdW DFT" >
   <i type="logical" name="LUSE_VDW"> F  </i>
   <i name="Zab_VDW">     -0.84910000</i>
   <i name="PARAM1">      0.12340000</i>
   <i name="PARAM2">      1.00000000</i>
   <i name="PARAM3">      0.00000000</i>
  </separator>
  <separator name="model GW" >
   <i type="int" name="MODEL_GW">     0</i>
   <i name="MODEL_EPS0">     12.01436085</i>
   <i name="MODEL_ALPHA">      1.00000000</i>
  </separator>
  <separator name="linear response parameters" >
   <i type="logical" name="LEPSILON"> F  </i>
   <i type="logical" name="LRPA"> F  </i>
   <i type="logical" name="LNABLA"> F  </i>
   <i type="logical" name="LVEL"> F  </i>
   <i type="int" name="KINTER">     0</i>
   <i name="CSHIFT">      0.10000000</i>
   <i name="OMEGAMAX">     -1.00000000</i>
   <i name="DEG_THRESHOLD">      0.00200000</i>
  </separator>
  <separator name="orbital magnetization" >
   <i type="logical" name="NUCIND"> F  </i>
   <v name="MAGPOS">      0.00000000      0.00000000      0.00000000</v>
   <i type="logical" name="LNICSALL"> T  </i>
   <i type="logical" name="ORBITALMAG"> F  </i>
   <i type="logical" name="LMAGBLOCH"> F  </i>
   <i type="logical" name="LCHIMAG"> F  </i>
   <i type="logical" name="LGAUGE"> T  </i>
   <i type="int" name="MAGATOM">     0</i>
   <v name="MAGDIPOL">      0.00000000      0.00000000      0.00000000</v>
   <v name="AVECCONST">      0.00000000      0.00000000      0.00000000</v>
  </separator>
  <separator name="response functions" >
   <i type="logical" name="LADDER"> F  </i>
   <i type="logical" name="LFXC"> F  </i>
   <i type="logical" name="LHARTREE"> T  </i>
   <i type="int" name="IBSE">     0</i>
   <v type="int" name="KPOINT">    -1     0     0     0</v>
   <i type="logical" name="LTCTE"> F  </i>
   <i type="logical" name="LTETE"> F  </i>
   <i type="logical" name="LTRIPLET"> F  </i>
   <i type="logical" name="LFXCEPS"> F  </i>
   <i type="logical" name="LFXHEG"> F  </i>
   <i type="int" name="NATURALO">     0</i>
   <i type="logical" name="L2ORDER"> F  </i>
   <i type="logical" name="LUSEW"> F  </i>
   <i name="ENCUTGW">     -2.00000000</i>
   <i name="ENCUTGWSOFT">     -2.00000000</i>
   <i name="ENCUTLF">     -1.00000000</i>
   <i type="int" name="LMAXMP2">    -1</i>
   <i name="SCISSOR">      0.00000000</i>
   <i type="int" name="NOMEGA">     0</i>
   <i type="int" name="NOMEGAR">     0</i>
   <i type="int" name="NBANDSGW">    -1</i>
   <i type="int" name="NBANDSO">    -1</i>
   <i type="int" name="NBANDSV">    -1</i>
   <i type="int" name="NELM">    60</i>
   <i type="int" name="NELMHF">     1</i>
   <i type="int" name="DIM">     3</i>
   <i type="int" name="ANTIRES">     0</i>
   <i name="OMEGAMAX">    -30.00000000</i>
   <i name="OMEGAMIN">    -30.00000000</i>
   <i name="OMEGATL">   -200.00000000</i>
   <i type="int" name="OMEGAGRID">     0</i>
   <i name="CSHIFT">     -0.10000000</i>
   <i type="logical" name="SELFENERGY"> F  </i>
   <i type="logical" name="LSPECTRAL"> F  </i>
   <i type="logical" name="LSPECTRALGW"> F  </i>
   <i type="logical" name="LSINGLES"> F  </i>
   <i type="logical" name="LFERMIGW"> F  </i>
   <i type="logical" name="ODDONLYGW"> F  </i>
   <i type="logical" name="EVENONLYGW"> F  </i>
   <i type="int" name="NKREDLFX">     1</i>
   <i type="int" name="NKREDLFY">     1</i>
   <i type="int" name="NKREDLFZ">     1</i>
   <i type="int" name="MAXMEM">  1800</i>
   <i type="int" name="TELESCOPE">     0</i>
   <i type="int" name="TAUPAR">     1</i>
   <i type="int" name="OMEGAPAR">    -1</i>
   <i name="LAMBDA">      1.00000000</i>
  </separator>
  <separator name="External order field" >
   <i name="OFIELD_KAPPA">      0.00000000</i>
   <v name="OFIELD_K">      0.00000000      0.00000000      0.00000000</v>
   <i name="OFIELD_Q6_NEAR">      0.00000000</i>
   <i name="OFIELD_Q6_FAR">      0.00000000</i>
   <i name="OFIELD_A">      0.00000000</i>
  </separator>
 </parameters>
 <atominfo>
  <atoms>       8 </atoms>
  <types>       1 </types>
  <array name="atoms" >
   <dimension dim="1">ion</dimension>
   <field type="string">element</field>
   <field type="int">atomtype</field>
   <set>
    <rc><c>Si</c><c>   1</c></rc>
    <rc><c>Si</c><c>   1</c></rc>
    <rc><c>Si</c><c>   1</c></rc>
    <rc><c>Si</c><c>   1</c></rc>
    <rc><c>Si</c><c>   1</c></rc>
    <rc><c>Si</c><c>   1</c></rc>
    <rc><c>Si</c><c>   1</c></rc>
    <rc><c>Si</c><c>   1</c></rc>
   </set>
  </array>
  <array name="atomtypes" >
   <dimension dim="1">type</dimension>
   <field type="int">atomspertype</field>
   <field type="string">element</field>
   <field>mass</field>
   <field>valence</field>
   <field type="string">pseudopotential</field>
   <set>
    <rc><c>   8</c><c>Si</c><c>     28.08500000</c><c>      4.00000000</c><c>  PAW_PBE Si 05Jan2001                  </c></rc>
   </set>
  </array>
 </atominfo>
 <structure name="initialpos" >
  <crystal>
   <varray name="basis" >
    <v>       5.43100000       0.00000000       0.00000000 </v>
    <v>       0.00000000       5.43100000       0.00000000 </v>
    <v>       0.00000000       0.00000000       5.43100000 </v>
   </varray>
   <i name="volume">    160.19147799 </i>
   <varray name="rec_basis" >
    <v>       0.18412815       0.00000000       0.00000000 </v>
    <v>       0.00000000       0.18412815       0.00000000 </v>
    <v>       0.00000000       0.00000000       0.18412815 </v>
   </varray>
  </crystal>
  <varray name="positions" >
   <v>       0.00000000       0.00000000       0.00000000 </v>
   <v>       0.00000000       0.50000000       0.50000000 </v>
   <v>       0.50000000       0.00000000       0.50000000 </v>
   <v>       0.50000000       0.50000000       0.00000000 </v>
   <v>       0.25000000       0.25000000       0.25000000 </v>
   <v>       0.75000000       0.75000000       0.25000000 </v>
   <v>       0.75000000       0.25000000       0.75000000 </v>
   <v>       0.25000000       0.75000000       0.75000000 </v>
  </varray>
 </structure>
 <calculation>
  <scstep>
   <time name="dav">    0.85    1.04</time>
   <time name="total">    0.88    1.15</time>
   <energy>
    <i name="alphaZ">     13.44915721 </i>
    <i name="ewald">   -914.08579262 </i>
    <i name="hartreedc">    -44.03749844 </i>
    <i name="XCdc">    -74.41615756 </i>
    <i name="pawpsdc">    704.99039692 </i>
    <i name="pawaedc">   -564.24414232 </i>
    <i name="eentropy">     -0.00744137 </i>
    <i name="bandstr">    117.37420754 </i>
    <i name="atom">    824.53005375 </i>
    <i name="e_fr_energy">     63.55278310 </i>
    <i name="e_wo_entrp">     63.56022448 </i>
    <i name="e_0_energy">     63.55650379 </i>
   </energy>
  </scstep>
  <scstep>
   <time name="dav">    0.74    0.74</time>
   <time name="total">    0.74    0.76</time>
   <energy>
    <i name="e_fr_energy">    -39.49748561 </i>
    <i name="e_wo_entrp">    -39.49746420 </i>
    <i name="e_0_energy">    -39.49747491 </i>
   </energy>
  </scstep>
  <scstep>
   <time name="dav">    0.75    0.81</time>
   <time name="total">    0.80    0.86</time>
   <energy>
    <i name="e_fr_energy">    -44.04597832 </i>
    <i name="e_wo_entrp">    -44.04597832 </i>
    <i name="e_0_energy">    -44.04597832 </i>
   </energy>
  </scstep>
  <scstep>
   <time name="dav">    0.76    0.82</time>
   <time name="total">    0.82    0.89</time>
   <energy>
    <i name="e_fr_energy">    -43.60528559 </i>
    <i name="e_wo_entrp">    -43.60528559 </i>
    <i name="e_0_energy">    -43.60528559 </i>
   </energy>
  </scstep>
  <scstep>
   <time name="dav">    0.71    0.71</time>
   <time name="total">    0.77    0.77</time>
   <energy>
    <i name="e_fr_energy">    -43.37172414 </i>
    <i name="e_wo_entrp">    -43.37172391 </i>
    <i name="e_0_energy">    -43.37172403 </i>
   </energy>
  </scstep>
  <scstep>
   <time name="dav">    0.95    0.96</time>
   <time name="total">    1.00    1.02</time>
   <energy>
    <i name="e_fr_energy">    -43.37737681 </i>
    <i name="e_wo_entrp">    -43.37737659 </i>
    <i name="e_0_energy">    -43.37737670 </i>
   </energy>
  </scstep>
  <scstep>
   <time name="dav">    0.67    0.67</time>
   <time name="total">    0.73    0.73</time>
   <energy>
    <i name="e_fr_energy">    -43.37969311 </i>
    <i name="e_wo_entrp">    -43.37969298 </i>
    <i name="e_0_energy">    -43.37969305 </i>
   </energy>
  </scstep>
  <scstep>
   <time name="dav">    0.66    0.66</time>
   <time name="total">    0.67    0.67</time>
   <energy>
    <i name="alphaZ">     13.44915721 </i>
    <i name="ewald">   -914.08579262 </i>
    <i name="hartreedc">    -59.63782413 </i>
    <i name="XCdc">    -71.86605825 </i>
    <i name="pawpsdc">   3507.58767788 </i>
    <i name="pawaedc">  -3367.73422104 </i>
    <i name="eentropy">     -0.00000013 </i>
    <i name="bandstr">     24.37729822 </i>
    <i name="atom">    824.53005375 </i>
    <i name="e_fr_energy">    -43.37970910 </i>
    <i name="e_wo_entrp">    -43.37970897 </i>
    <i name="e_0_energy">    -43.37970904 </i>
   </energy>
  </scstep>
  <structure>
   <crystal>
    <varray name="basis" >
     <v>       5.43100000       0.00000000       0.00000000 </v>
     <v>       0.00000000       5.43100000       0.00000000 </v>
     <v>       0.00000000       0.00000000       5.43100000 </v>
    </varray>
    <i name="volume">    160.19147799 </i>
    <varray name="rec_basis" >
     <v>       0.18412815       0.00000000       0.00000000 </v>
     <v>       0.00000000       0.18412815       0.00000000 </v>
     <v>       0.00000000       0.00000000       0.18412815 </v>
    </varray>
   </crystal>
   <varray name="positions" >
    <v>       0.00000000       0.00000000       0.00000000 </v>
    <v>       0.00000000       0.50000000       0.50000000 </v>
    <v>       0.50000000       0.00000000       0.50000000 </v>
    <v>       0.50000000       0.50000000       0.00000000 </v>
    <v>       0.25000000       0.25000000       0.25000000 </v>
    <v>       0.75000000       0.75000000       0.25000000 </v>
    <v>       0.75000000       0.25000000       0.75000000 </v>
    <v>       0.25000000       0.75000000       0.75000000 </v>
   </varray>
  </structure>
  <varray name="forces" >
   <v>      -0.00000000      -0.00000000       0.00000000 </v>
   <v>       0.00000000       0.00000000       0.00000000 </v>
   <v>       0.00000000      -0.00000000       0.00000000 </v>
   <v>       0.00000000      -0.00000000       0.00000000 </v>
   <v>      -0.00000000       0.00000000      -0.00000000 </v>
   <v>      -0.00000000       0.00000000      -0.00000000 </v>
   <v>      -0.00000000      -0.00000000      -0.00000000 </v>
   <v>       0.00000000      -0.00000000      -0.00000000 </v>
  </varray>
  <varray name="stress" >
   <v>      19.50877726      -0.00000000       0.00000000 </v>
   <v>      -0.00000000      19.50877726       0.00000000 </v>
   <v>       0.00000000       0.00000000      19.50877726 </v>
  </varray>
  <energy>
   <i name="e_fr_energy">    -43.37970910 </i>
   <i name="e_wo_entrp">    -43.37970904 </i>
   <i name="e_0_energy">     -0.00000013 </i>
  </energy>
  <time name="totalsc">    7.26    7.74</time>
 </calculation>
 <calculation>
  <scstep>
   <time name="dav">    0.71    0.72</time>
   <time name="total">    0.72    0.73</time>
   <energy>
    <i name="alphaZ">     12.54294953 </i>
    <i name="ewald">   -893.07615453 </i>
    <i name="hartreedc">    -58.31986292 </i>
    <i name="XCdc">    -73.23042210 </i>
    <i name="pawpsdc">   3471.96545884 </i>
    <i name="pawaedc">  -3332.11437044 </i>
    <i name="eentropy">     -0.00000000 </i>
    <i name="bandstr">      4.30650486 </i>
    <i name="atom">    824.53005375 </i>
    <i name="e_fr_energy">    -43.39584302 </i>
    <i name="e_wo_entrp">    -43.39584302 </i>
    <i name="e_0_energy">    -43.39584302 </i>
   </energy>
  </scstep>
  <scstep>
   <time name="dav">    0.74    0.74</time>
   <time name="total">    0.74    0.74</time>
   <energy>
    <i name="e_fr_energy">    -43.40355440 </i>
    <i name="e_wo_entrp">    -43.40355440 </i>
    <i name="e_0_energy">    -43.40355440 </i>
   </energy>
  </scstep>
  <scstep>
   <time name="dav">    0.74    0.74</time>
   <time name="total">    0.79    0.79</time>
   <energy>
    <i name="e_fr_energy">    -43.40364116 </i>
    <i name="e_wo_entrp">    -43.40364116 </i>
    <i name="e_0_energy">    -43.40364116 </i>
   </energy>
  </scstep>
  <scstep>
   <time name="dav">    0.64    0.64</time>
   <time name="total">    0.70    0.70</time>
   <energy>
    <i name="e_fr_energy">    -43.33063138 </i>
    <i name="e_wo_entrp">    -43.33063138 </i>
    <i name="e_0_energy">    -43.33063138 </i>
   </energy>
  </scstep>
  <scstep>
   <time name="dav">    0.69    0.69</time>
   <time name="total">    0.74    0.75</time>
   <energy>
    <i name="e_fr_energy">    -43.29428352 </i>
    <i name="e_wo_entrp">    -43.29428351 </i>
    <i name="e_0_energy">    -43.29428351 </i>
   </energy>
  </scstep>
  <scstep>
   <time name="dav">    0.71    0.72</time>
   <time name="total">    0.77    0.77</time>
   <energy>
    <i name="e_fr_energy">    -43.29409589 </i>
    <i name="e_wo_entrp">    -43.29409588 </i>
    <i name="e_0_energy">    -43.29409588 </i>
   </energy>
  </scstep>
  <scstep>
   <time name="dav">    0.70    0.70</time>
   <time name="total">    0.71    0.71</time>
   <energy>
    <i name="alphaZ">     12.54294953 </i>
    <i name="ewald">   -893.07615453 </i>
    <i name="hartreedc">    -63.05563503 </i>
    <i name="XCdc">    -73.12656721 </i>
    <i name="pawpsdc">   2956.88257012 </i>
    <i name="pawaedc">  -2816.79524229 </i>
    <i name="eentropy">     -0.00000000 </i>
    <i name="bandstr">      8.80401114 </i>
    <i name="atom">    824.53005375 </i>
    <i name="e_fr_energy">    -43.29401452 </i>
    <i name="e_wo_entrp">    -43.29401451 </i>
    <i name="e_0_energy">    -43.29401451 </i>
   </energy>
  </scstep>
  <structure>
   <crystal>
    <varray name="basis" >
     <v>       5.55876441      -0.00000000       0.00000000 </v>
     <v>      -0.00000000       5.55876441       0.00000000 </v>
     <v>       0.00000000       0.00000000       5.55876441 </v>
    </varray>
    <i name="volume">    171.76505150 </i>
    <varray name="rec_basis" >
     <v>       0.17989609       0.00000000      -0.00000000 </v>
     <v>       0.00000000       0.17989609      -0.00000000 </v>
     <v>      -0.00000000      -0.00000000       0.17989609 </v>
    </varray>
   </crystal>
   <varray name="positions" >
    <v>      -0.00000000      -0.00000000       0.00000000 </v>
    <v>       0.00000000       0.50000000       0.50000000 </v>
    <v>       0.50000000      -0.00000000       0.50000000 </v>
    <v>       0.50000000       0.50000000       0.00000000 </v>
    <v>       0.25000000       0.25000000       0.25000000 </v>
    <v>       0.75000000       0.75000000       0.25000000 </v>
    <v>       0.75000000       0.25000000       0.75000000 </v>
    <v>       0.25000000       0.75000000       0.75000000 </v>
   </varray>
  </structure>
  <varray name="forces" >
   <v>       0.00000000       0.00000000       0.00000000 </v>
   <v>       0.00000000       0.00000000      -0.00000000 </v>
   <v>      -0.00000000      -0.00000000       0.00000000 </v>
   <v>       0.00000000       0.00000000       0.00000000 </v>
   <v>      -0.00000000      -0.00000000      -0.00000000 </v>
   <v>      -0.00000000      -0.00000000      -0.00000000 </v>
   <v>       0.00000000      -0.00000000       0.00000000 </v>
   <v>       0.00000000       0.00000000      -0.00000000 </v>
  </varray>
  <varray name="stress" >
   <v>     -39.30490284       0.00000000      -0.00000000 </v>
   <v>      -0.00000000     -39.30490284       0.00000000 </v>
   <v>       0.00000000      -0.00000000     -39.30490284 </v>
  </varray>
  <energy>
   <i name="e_fr_energy">    -43.29401452 </i>
   <i name="e_wo_entrp">    -43.29401451 </i>
   <i name="e_0_energy">     -0.00000000 </i>
  </energy>
  <time name="totalsc">    5.63    5.68</time>
 </calculation>
 <calculation>
  <scstep>
   <time name="dav">    0.68    0.68</time>
   <time name="total">    0.69    0.69</time>
   <energy>
    <i name="alphaZ">     13.16879052 </i>
    <i name="ewald">   -907.68933343 </i>
    <i name="hartreedc">    -64.10064632 </i>
    <i name="XCdc">    -72.18558030 </i>
    <i name="pawpsdc">   2986.83112729 </i>
    <i name="pawaedc">  -2846.75011048 </i>
    <i name="eentropy">     -0.00000039 </i>
    <i name="bandstr">     22.74670309 </i>
    <i name="atom">    824.53005375 </i>
    <i name="e_fr_energy">    -43.44899628 </i>
    <i name="e_wo_entrp">    -43.44899589 </i>
    <i name="e_0_energy">    -43.44899608 </i>
   </energy>
  </scstep>
  <scstep>
   <time name="dav">    1.01    1.04</time>
   <time name="total">    1.01    1.04</time>
   <energy>
    <i name="e_fr_energy">    -43.45378920 </i>
    <i name="e_wo_entrp">    -43.45378882 </i>
    <i name="e_0_energy">    -43.45378901 </i>
   </energy>
  </scstep>
  <scstep>
   <time name="dav">    0.86    0.88</time>
   <time name="total">    0.91    0.93</time>
   <energy>
    <i name="e_fr_energy">    -43.45382545 </i>
    <i name="e_wo_entrp">    -43.45382506 </i>
    <i name="e_0_energy">    -43.45382526 </i>
   </energy>
  </scstep>
  <scstep>
   <time name="dav">    0.65    0.72</time>
   <time name="total">    0.71    0.78</time>
   <energy>
    <i name="e_fr_energy">    -43.41741978 </i>
    <i name="e_wo_entrp">    -43.41741964 </i>
    <i name="e_0_energy">    -43.41741971 </i>
   </energy>
  </scstep>
  <scstep>
   <time name="dav">    0.68    0.68</time>
   <time name="total">    0.73    0.74</time>
   <energy>
    <i name="e_fr_energy">    -43.39948781 </i>
    <i name="e_wo_entrp">    -43.39948777 </i>
    <i name="e_0_energy">    -43.39948779 </i>
   </energy>
  </scstep>
  <scstep>
   <time name="dav">    0.70    0.71</time>
   <time name="total">    0.76    0.76</time>
   <energy>
    <i name="e_fr_energy">    -43.39947278 </i>
    <i name="e_wo_entrp">    -43.39947273 </i>
    <i name="e_0_energy">    -43.39947275 </i>
   </energy>
  </scstep>
  <scstep>
   <time name="dav">    0.55    0.55</time>
   <time name="total">    0.56    0.56</time>
   <energy>
    <i name="alphaZ">     13.16879052 </i>
    <i name="ewald">   -907.68933343 </i>
    <i name="hartreedc">    -60.69256884 </i>
    <i name="XCdc">    -72.24513962 </i>
    <i name="pawpsdc">   3331.02110911 </i>
    <i name="pawaedc">  -3191.09784570 </i>
    <i name="eentropy">     -0.00000004 </i>
    <i name="bandstr">     19.60553638 </i>
    <i name="atom">    824.53005375 </i>
    <i name="e_fr_energy">    -43.39939786 </i>
    <i name="e_wo_entrp">    -43.39939782 </i>
    <i name="e_0_energy">    -43.39939784 </i>
   </energy>
  </scstep>
  <structure>
   <crystal>
    <varray name="basis" >
     <v>       5.46927209      -0.00000000       0.00000000 </v>
     <v>      -0.00000000       5.46927209       0.00000000 </v>
     <v>       0.00000000       0.00000000       5.46927209 </v>
    </varray>
    <i name="volume">    163.60199273 </i>
    <varray name="rec_basis" >
     <v>       0.18283969       0.00000000      -0.00000000 </v>
     <v>       0.00000000       0.18283969      -0.00000000 </v>
     <v>      -0.00000000      -0.00000000       0.18283969 </v>
    </varray>
   </crystal>
   <varray name="positions" >
    <v>      -0.00000000      -0.00000000       0.00000000 </v>
    <v>       0.00000000       0.50000000       0.50000000 </v>
    <v>       0.50000000      -0.00000000       0.50000000 </v>
    <v>       0.50000000       0.50000000       0.00000000 </v>
    <v>       0.25000000       0.25000000       0.25000000 </v>
    <v>       0.75000000       0.75000000       0.25000000 </v>
    <v>       0.75000000       0.25000000       0.75000000 </v>
    <v>       0.25000000       0.75000000       0.75000000 </v>
   </varray>
  </structure>
  <varray name="forces" >
   <v>      -0.00000000       0.00000000       0.00000000 </v>
   <v>      -0.00000000       0.00000000       0.00000000 </v>
   <v>       0.00000000      -0.00000000      -0.00000000 </v>
   <v>       0.00000000       0.00000000       0.00000000 </v>
   <v>      -0.00000000      -0.00000000      -0.00000000 </v>
   <v>       0.00000000      -0.00000000      -0.00000000 </v>
   <v>       0.00000000      -0.00000000      -0.00000000 </v>
   <v>      -0.00000000       0.00000000       0.00000000 </v>
  </varray>
  <varray name="stress" >
   <v>      -0.27776893       0.00000000      -0.00000000 </v>
   <v>       0.00000000      -0.27776893      -0.00000000 </v>
   <v>       0.00000000       0.00000000      -0.27776893 </v>
  </varray>
  <energy>
   <i name="e_fr_energy">    -43.39939786 </i>
   <i name="e_wo_entrp">    -43.39939784 </i>
   <i name="e_0_energy">     -0.00000004 </i>
  </energy>
  <time name="totalsc">    5.93    6.17</time>
  <eigenvalues>
   <array>
    <dimension dim="1">band</dimension>
    <dimension dim="2">kpoint</dimension>
    <dimension dim="3">spin</dimension>
    <field>eigene</field>
    <field>occ</field>
    <set>
     <set comment="spin 1">
      <set comment="kpoint 1">
       <r>   -6.1998    1.0000 </r>
       <r>   -2.1326    1.0000 </r>
       <r>   -2.1326    1.0000 </r>
       <r>   -2.1326    1.0000 </r>
       <r>   -2.1326    1.0000 </r>
       <r>   -2.1326    1.0000 </r>
       <r>   -2.1326    1.0000 </r>
       <r>    2.8195    1.0000 </r>
       <r>    2.8195    1.0000 </r>
       <r>    2.8195    1.0000 </r>
       <r>    2.8195    1.0000 </r>
       <r>    2.8195    1.0000 </r>
       <r>    2.8195    1.0000 </r>
       <r>    5.6126    1.0000 </r>
       <r>    5.6126    1.0000 </r>
       <r>    5.6126    1.0000 </r>
       <r>    6.3655    0.0000 </r>
       <r>    6.3655    0.0000 </r>
       <r>    6.3655    0.0000 </r>
       <r>    6.3655    0.0000 </r>
       <r>    6.3655    0.0000 </r>
       <r>    6.3655    0.0000 </r>
       <r>    8.1695    0.0000 </r>
       <r>    8.1695    0.0000 </r>
       <r>    8.1695    0.0000 </r>
      </set>
      <set comment="kpoint 2">
       <r>   -6.1643    1.0000 </r>
       <r>   -2.8006    1.0000 </r>
       <r>   -2.1213    1.0000 </r>
       <r>   -2.1213    1.0000 </r>
       <r>   -2.1213    1.0000 </r>
       <r>   -2.1213    1.0000 </r>
       <r>   -1.4222    1.0000 </r>
       <r>    2.7190    1.0000 </r>
       <r>    2.7190    1.0000 </r>
       <r>    2.7190    1.0000 </r>
       <r>    2.7190    1.0000 </r>
       <r>    2.8516    1.0000 </r>
       <r>    2.8516    1.0000 </r>
       <r>    5.3705    1.0000 </r>
       <r>    5.4697    1.0000 </r>
       <r>    5.4697    1.0000 </r>
       <r>    6.2502    0.0000 </r>
       <r>    6.5562    0.0000 </r>
       <r>    6.5562    0.0000 </r>
       <r>    6.5562    0.0000 </r>
       <r>    6.5562    0.0000 </r>
       <r>    6.5770    0.0000 </r>
       <r>    8.0835    0.0000 </r>
       <r>    8.3563    0.0000 </r>
       <r>    8.3563    0.0000 </r>
      </set>
      <set comment="kpoint 3">
       <r>   -6.0579    1.0000 </r>
       <r>   -3.4200    1.0000 </r>
       <r>   -2.0903    1.0000 </r>
       <r>   -2.0903    1.0000 </r>
       <r>   -2.0903    1.0000 </r>
       <r>   -2.0903    1.0000 </r>
       <r>   -0.6766    1.0000 </r>
       <r>    2.4794    1.0000 </r>
       <r>    2.4794    1.0000 </r>
       <r>    2.4794    1.0000 </r>
       <r>    2.4794    1.0000 </r>
       <r>    2.9476    1.0000 </r>
       <r>    2.9476    1.0000 </r>
       <r>    4.7934    1.0000 </r>
       <r>    5.1305    1.0000 </r>
       <r>    5.1305    1.0000 </r>
       <r>    6.2260    0.0000 </r>
       <r>    6.8887    0.0000 </r>
       <r>    7.0684    0.0000 </r>
       <r>    7.0684    0.0000 </r>
       <r>    7.0684    0.0000 </r>
       <r>    7.0684    0.0000 </r>
       <r>    7.8553    0.0000 </r>
       <r>    8.8261    0.0000 </r>
       <r>    8.8261    0.0000 </r>
      </set>
      <set comment="kpoint 4">
       <r>   -5.8811    1.0000 </r>
       <r>   -3.9856    1.0000 </r>
       <r>   -2.0478    1.0000 </r>
       <r>   -2.0478    1.0000 </r>
       <r>   -2.0478    1.0000 </r>
       <r>   -2.0478    1.0000 </r>
       <r>    0.0963    1.0000 </r>
       <r>    2.2096    1.0000 </r>
       <r>    2.2096    1.0000 </r>
       <r>    2.2096    1.0000 </r>
       <r>    2.2096    1.0000 </r>
       <r>    3.1065    1.0000 </r>
       <r>    3.1065    1.0000 </r>
       <r>    4.0727    1.0000 </r>
       <r>    4.7227    1.0000 </r>
       <r>    4.7227    1.0000 </r>
       <r>    6.2872    0.0000 </r>
       <r>    7.3029    0.0000 </r>
       <r>    7.5478    0.0000 </r>
       <r>    7.7974    0.0000 </r>
       <r>    7.7974    0.0000 </r>
       <r>    7.7974    0.0000 </r>
       <r>    7.7974    0.0000 </r>
       <r>    9.4495    0.0000 </r>
       <r>    9.4495    0.0000 </r>
      </set>
      <set comment="kpoint 5">
       <r>   -5.6347    1.0000 </r>
       <r>   -4.4930    1.0000 </r>
       <r>   -2.0069    1.0000 </r>
       <r>   -2.0069    1.0000 </r>
       <r>   -2.0069    1.0000 </r>
       <r>   -2.0069    1.0000 </r>
       <r>    0.8883    1.0000 </r>
       <r>    1.9902    1.0000 </r>
       <r>    1.9902    1.0000 </r>
       <r>    1.9902    1.0000 </r>
       <r>    1.9902    1.0000 </r>
       <r>    3.2958    1.0000 </r>
       <r>    3.3266    1.0000 </r>
       <r>    3.3266    1.0000 </r>
       <r>    4.3147    1.0000 </r>
       <r>    4.3147    1.0000 </r>
       <r>    6.4269    0.0000 </r>
       <r>    7.2182    0.0000 </r>
       <r>    7.8177    0.0000 </r>
       <r>    8.6662    0.0000 </r>
       <r>    8.6662    0.0000 </r>
       <r>    8.6662    0.0000 </r>
       <r>    8.6662    0.0000 </r>
       <r>    9.6856    0.0000 </r>
       <r>   10.1556    0.0000 </r>
      </set>
      <set comment="kpoint 6">
       <r>   -5.3201    1.0000 </r>
       <r>   -4.9388    1.0000 </r>
       <r>   -1.9816    1.0000 </r>
       <r>   -1.9816    1.0000 </r>
       <r>   -1.9816    1.0000 </r>
       <r>   -1.9816    1.0000 </r>
       <r>    1.6912    1.0000 </r>
       <r>    1.8689    1.0000 </r>
       <r>    1.8689    1.0000 </r>
       <r>    1.8689    1.0000 </r>
       <r>    1.8689    1.0000 </r>
       <r>    2.4969    1.0000 </r>
       <r>    3.6050    1.0000 </r>
       <r>    3.6050    1.0000 </r>
       <r>    3.9371    1.0000 </r>
       <r>    3.9371    1.0000 </r>
       <r>    6.6370    0.0000 </r>
       <r>    6.9062    0.0000 </r>
       <r>    8.4222    0.0000 </r>
       <r>    9.0821    0.0000 </r>
       <r>    9.5943    0.0000 </r>
       <r>    9.5943    0.0000 </r>
       <r>    9.5943    0.0000 </r>
       <r>    9.5943    0.0000 </r>
       <r>   10.8506    0.0000 </r>
      </set>
      <set comment="kpoint 7">
       <r>   -6.1289    1.0000 </r>
       <r>   -2.7823    1.0000 </r>
       <r>   -2.7823    1.0000 </r>
       <r>   -2.1673    1.0000 </r>
       <r>   -2.0554    1.0000 </r>
       <r>   -1.4209    1.0000 </r>
       <r>   -1.4209    1.0000 </r>
       <r>    2.4215    1.0000 </r>
       <r>    2.7360    1.0000 </r>
       <r>    2.7360    1.0000 </r>
       <r>    2.7705    1.0000 </r>
       <r>    2.7705    1.0000 </r>
       <r>    2.8762    1.0000 </r>
       <r>    4.9778    1.0000 </r>
       <r>    5.3265    1.0000 </r>
       <r>    5.5801    1.0000 </r>
       <r>    6.4309    0.0000 </r>
       <r>    6.4494    0.0000 </r>
       <r>    6.4494    0.0000 </r>
       <r>    6.7573    0.0000 </r>
       <r>    6.7573    0.0000 </r>
       <r>    7.0047    0.0000 </r>
       <r>    8.2427    0.0000 </r>
       <r>    8.3023    0.0000 </r>
       <r>    8.3535    0.0000 </r>
      </set>
      <set comment="kpoint 8">
       <r>   -6.0228    1.0000 </r>
       <r>   -3.3967    1.0000 </r>
       <r>   -2.7293    1.0000 </r>
       <r>   -2.2015    1.0000 </r>
       <r>   -1.9670    1.0000 </r>
       <r>   -1.4206    1.0000 </r>
       <r>   -0.6896    1.0000 </r>
       <r>    2.0931    1.0000 </r>
       <r>    2.4595    1.0000 </r>
       <r>    2.5795    1.0000 </r>
       <r>    2.8204    1.0000 </r>
       <r>    2.8327    1.0000 </r>
       <r>    2.8911    1.0000 </r>
       <r>    4.4009    1.0000 </r>
       <r>    4.9862    1.0000 </r>
       <r>    5.3790    1.0000 </r>
       <r>    6.4317    0.0000 </r>
       <r>    6.6852    0.0000 </r>
       <r>    6.9778    0.0000 </r>
       <r>    7.0571    0.0000 </r>
       <r>    7.2485    0.0000 </r>
       <r>    7.6738    0.0000 </r>
       <r>    8.0465    0.0000 </r>
       <r>    8.6065    0.0000 </r>
       <r>    8.7523    0.0000 </r>
      </set>
      <set comment="kpoint 9">
       <r>   -5.8464    1.0000 </r>
       <r>   -3.9586    1.0000 </r>
       <r>   -2.6480    1.0000 </r>
       <r>   -2.2359    1.0000 </r>
       <r>   -1.8594    1.0000 </r>
       <r>   -1.4313    1.0000 </r>
       <r>    0.0628    1.0000 </r>
       <r>    1.8155    1.0000 </r>
       <r>    2.1400    1.0000 </r>
       <r>    2.3760    1.0000 </r>
       <r>    2.6504    1.0000 </r>
       <r>    2.9708    1.0000 </r>
       <r>    3.0809    1.0000 </r>
       <r>    3.7532    1.0000 </r>
       <r>    4.5768    1.0000 </r>
       <r>    4.9673    1.0000 </r>
       <r>    6.4971    0.0000 </r>
       <r>    7.2567    0.0000 </r>
       <r>    7.4582    0.0000 </r>
       <r>    7.7206    0.0000 </r>
       <r>    7.7469    0.0000 </r>
       <r>    7.9580    0.0000 </r>
       <r>    8.4898    0.0000 </r>
       <r>    9.1011    0.0000 </r>
       <r>    9.3843    0.0000 </r>
      </set>
      <set comment="kpoint 10">
       <r>   -5.6008    1.0000 </r>
       <r>   -4.4634    1.0000 </r>
       <r>   -2.5489    1.0000 </r>
       <r>   -2.2840    1.0000 </r>
       <r>   -1.7414    1.0000 </r>
       <r>   -1.4652    1.0000 </r>
       <r>    0.8254    1.0000 </r>
       <r>    1.6381    1.0000 </r>
       <r>    1.8589    1.0000 </r>
       <r>    2.2351    1.0000 </r>
       <r>    2.4369    1.0000 </r>
       <r>    3.0608    1.0000 </r>
       <r>    3.1850    1.0000 </r>
       <r>    3.3400    1.0000 </r>
       <r>    4.1676    1.0000 </r>
       <r>    4.5015    1.0000 </r>
       <r>    6.6391    0.0000 </r>
       <r>    7.4236    0.0000 </r>
       <r>    7.9590    0.0000 </r>
       <r>    8.0391    0.0000 </r>
       <r>    8.6000    0.0000 </r>
       <r>    8.8092    0.0000 </r>
       <r>    9.4021    0.0000 </r>
       <r>    9.5576    0.0000 </r>
       <r>   10.1016    0.0000 </r>
      </set>
      <set comment="kpoint 11">
       <r>   -5.2871    1.0000 </r>
       <r>   -4.9072    1.0000 </r>
       <r>   -2.4461    1.0000 </r>
       <r>   -2.3543    1.0000 </r>
       <r>   -1.6267    1.0000 </r>
       <r>   -1.5309    1.0000 </r>
       <r>    1.5862    1.0000 </r>
       <r>    1.5867    1.0000 </r>
       <r>    1.6644    1.0000 </r>
       <r>    2.1971    1.0000 </r>
       <r>    2.2707    1.0000 </r>
       <r>    2.3355    1.0000 </r>
       <r>    3.4598    1.0000 </r>
       <r>    3.6669    1.0000 </r>
       <r>    3.7901    1.0000 </r>
       <r>    4.0579    1.0000 </r>
       <r>    6.8491    0.0000 </r>
       <r>    7.1160    0.0000 </r>
       <r>    8.5481    0.0000 </r>
       <r>    8.9471    0.0000 </r>
       <r>    9.1812    0.0000 </r>
       <r>    9.5600    0.0000 </r>
       <r>    9.6117    0.0000 </r>
       <r>   10.2219    0.0000 </r>
       <r>   10.2401    0.0000 </r>
      </set>
      <set comment="kpoint 12">
       <r>   -5.9175    1.0000 </r>
       <r>   -3.3281    1.0000 </r>
       <r>   -3.3281    1.0000 </r>
       <r>   -2.3124    1.0000 </r>
       <r>   -1.8242    1.0000 </r>
       <r>   -0.7323    1.0000 </r>
       <r>   -0.7323    1.0000 </r>
       <r>    1.7563    1.0000 </r>
       <r>    2.5166    1.0000 </r>
       <r>    2.5166    1.0000 </r>
       <r>    2.7630    1.0000 </r>
       <r>    2.7630    1.0000 </r>
       <r>    3.0439    1.0000 </r>
       <r>    3.8245    1.0000 </r>
       <r>    4.6426    1.0000 </r>
       <r>    5.4706    1.0000 </r>
       <r>    6.6242    0.0000 </r>
       <r>    6.9715    0.0000 </r>
       <r>    6.9715    0.0000 </r>
       <r>    7.5228    0.0000 </r>
       <r>    7.5228    0.0000 </r>
       <r>    8.4298    0.0000 </r>
       <r>    8.4620    0.0000 </r>
       <r>    8.4982    0.0000 </r>
       <r>    8.6230    0.0000 </r>
      </set>
      <set comment="kpoint 13">
       <r>   -5.7426    1.0000 </r>
       <r>   -3.8788    1.0000 </r>
       <r>   -3.2187    1.0000 </r>
       <r>   -2.4358    1.0000 </r>
       <r>   -1.6593    1.0000 </r>
       <r>   -0.8128    1.0000 </r>
       <r>   -0.0385    1.0000 </r>
       <r>    1.5195    1.0000 </r>
       <r>    2.1609    1.0000 </r>
       <r>    2.6440    1.0000 </r>
       <r>    2.6473    1.0000 </r>
       <r>    3.0322    1.0000 </r>
       <r>    3.0546    1.0000 </r>
       <r>    3.2174    1.0000 </r>
       <r>    4.2295    1.0000 </r>
       <r>    5.2380    1.0000 </r>
       <r>    6.9377    0.0000 </r>
       <r>    7.0436    0.0000 </r>
       <r>    7.7224    0.0000 </r>
       <r>    7.8946    0.0000 </r>
       <r>    8.2072    0.0000 </r>
       <r>    8.2501    0.0000 </r>
       <r>    8.7261    0.0000 </r>
       <r>    9.2097    0.0000 </r>
       <r>    9.2934    0.0000 </r>
      </set>
      <set comment="kpoint 14">
       <r>   -5.4992    1.0000 </r>
       <r>   -4.3754    1.0000 </r>
       <r>   -3.0763    1.0000 </r>
       <r>   -2.5794    1.0000 </r>
       <r>   -1.4760    1.0000 </r>
       <r>   -0.9362    1.0000 </r>
       <r>    0.6477    1.0000 </r>
       <r>    1.4094    1.0000 </r>
       <r>    1.8338    1.0000 </r>
       <r>    2.5945    1.0000 </r>
       <r>    2.5976    1.0000 </r>
       <r>    2.8481    1.0000 </r>
       <r>    2.9257    1.0000 </r>
       <r>    3.3861    1.0000 </r>
       <r>    3.8181    1.0000 </r>
       <r>    4.8028    1.0000 </r>
       <r>    7.1873    0.0000 </r>
       <r>    7.5610    0.0000 </r>
       <r>    7.9470    0.0000 </r>
       <r>    8.3628    0.0000 </r>
       <r>    8.6061    0.0000 </r>
       <r>    9.0322    0.0000 </r>
       <r>    9.1658    0.0000 </r>
       <r>    9.9524    0.0000 </r>
       <r>   10.2192    0.0000 </r>
      </set>
      <set comment="kpoint 15">
       <r>   -5.1888    1.0000 </r>
       <r>   -4.8132    1.0000 </r>
       <r>   -2.9125    1.0000 </r>
       <r>   -2.7418    1.0000 </r>
       <r>   -1.2839    1.0000 </r>
       <r>   -1.0980    1.0000 </r>
       <r>    1.3168    1.0000 </r>
       <r>    1.4330    1.0000 </r>
       <r>    1.5813    1.0000 </r>
       <r>    1.9657    1.0000 </r>
       <r>    2.6375    1.0000 </r>
       <r>    2.7617    1.0000 </r>
       <r>    3.1146    1.0000 </r>
       <r>    3.4410    1.0000 </r>
       <r>    3.8165    1.0000 </r>
       <r>    4.3027    1.0000 </r>
       <r>    7.3942    0.0000 </r>
       <r>    7.6530    0.0000 </r>
       <r>    8.3862    0.0000 </r>
       <r>    8.9122    0.0000 </r>
       <r>    9.2955    0.0000 </r>
       <r>    9.4111    0.0000 </r>
       <r>    9.5755    0.0000 </r>
       <r>   10.0522    0.0000 </r>
       <r>   10.1219    0.0000 </r>
      </set>
      <set comment="kpoint 16">
       <r>   -5.5704    1.0000 </r>
       <r>   -3.7491    1.0000 </r>
       <r>   -3.7491    1.0000 </r>
       <r>   -2.6546    1.0000 </r>
       <r>   -1.4400    1.0000 </r>
       <r>   -0.2051    1.0000 </r>
       <r>   -0.2051    1.0000 </r>
       <r>    1.3494    1.0000 </r>
       <r>    2.2659    1.0000 </r>
       <r>    2.2659    1.0000 </r>
       <r>    2.6513    1.0000 </r>
       <r>    3.0131    1.0000 </r>
       <r>    3.0131    1.0000 </r>
       <r>    3.3144    1.0000 </r>
       <r>    3.8130    1.0000 </r>
       <r>    5.2596    1.0000 </r>
       <r>    6.9363    0.0000 </r>
       <r>    7.7971    0.0000 </r>
       <r>    7.7971    0.0000 </r>
       <r>    8.5487    0.0000 </r>
       <r>    8.5487    0.0000 </r>
       <r>    8.5971    0.0000 </r>
       <r>    8.8265    0.0000 </r>
       <r>    9.0645    0.0000 </r>
       <r>   10.1807    0.0000 </r>
      </set>
      <set comment="kpoint 17">
       <r>   -5.3309    1.0000 </r>
       <r>   -4.2310    1.0000 </r>
       <r>   -3.5753    1.0000 </r>
       <r>   -2.8906    1.0000 </r>
       <r>   -1.1996    1.0000 </r>
       <r>   -0.4251    1.0000 </r>
       <r>    0.3846    1.0000 </r>
       <r>    1.3137    1.0000 </r>
       <r>    1.9060    1.0000 </r>
       <r>    2.0843    1.0000 </r>
       <r>    2.4491    1.0000 </r>
       <r>    3.0563    1.0000 </r>
       <r>    3.3729    1.0000 </r>
       <r>    3.4002    1.0000 </r>
       <r>    3.4719    1.0000 </r>
       <r>    4.9871    1.0000 </r>
       <r>    7.3002    0.0000 </r>
       <r>    7.9379    0.0000 </r>
       <r>    8.6477    0.0000 </r>
       <r>    8.6791    0.0000 </r>
       <r>    8.7631    0.0000 </r>
       <r>    8.9823    0.0000 </r>
       <r>    9.3290    0.0000 </r>
       <r>    9.7438    0.0000 </r>
       <r>    9.8651    0.0000 </r>
      </set>
      <set comment="kpoint 18">
       <r>   -5.0260    1.0000 </r>
       <r>   -4.6583    1.0000 </r>
       <r>   -3.3658    1.0000 </r>
       <r>   -3.1327    1.0000 </r>
       <r>   -0.9420    1.0000 </r>
       <r>   -0.6781    1.0000 </r>
       <r>    0.9574    1.0000 </r>
       <r>    1.4058    1.0000 </r>
       <r>    1.5211    1.0000 </r>
       <r>    1.6102    1.0000 </r>
       <r>    2.7046    1.0000 </r>
       <r>    3.0250    1.0000 </r>
       <r>    3.1596    1.0000 </r>
       <r>    3.2884    1.0000 </r>
       <r>    3.9922    1.0000 </r>
       <r>    4.5242    1.0000 </r>
       <r>    7.9631    0.0000 </r>
       <r>    8.1359    0.0000 </r>
       <r>    8.3791    0.0000 </r>
       <r>    8.8148    0.0000 </r>
       <r>    9.1345    0.0000 </r>
       <r>    9.4487    0.0000 </r>
       <r>    9.6460    0.0000 </r>
       <r>    9.7306    0.0000 </r>
       <r>   10.1602    0.0000 </r>
      </set>
      <set comment="kpoint 19">
       <r>   -5.0974    1.0000 </r>
       <r>   -4.0344    1.0000 </r>
       <r>   -4.0344    1.0000 </r>
       <r>   -3.2064    1.0000 </r>
       <r>   -0.9049    1.0000 </r>
       <r>    0.0715    1.0000 </r>
       <r>    0.0715    1.0000 </r>
       <r>    1.3460    1.0000 </r>
       <r>    1.5671    1.0000 </r>
       <r>    2.0664    1.0000 </r>
       <r>    2.0664    1.0000 </r>
       <r>    2.9884    1.0000 </r>
       <r>    3.5899    1.0000 </r>
       <r>    3.5899    1.0000 </r>
       <r>    3.6720    1.0000 </r>
       <r>    4.9372    1.0000 </r>
       <r>    7.3475    0.0000 </r>
       <r>    8.5498    0.0000 </r>
       <r>    8.8117    0.0000 </r>
       <r>    8.8117    0.0000 </r>
       <r>    9.2810    0.0000 </r>
       <r>    9.2810    0.0000 </r>
       <r>    9.3348    0.0000 </r>
       <r>    9.6236    0.0000 </r>
       <r>    9.7772    0.0000 </r>
      </set>
      <set comment="kpoint 20">
       <r>   -4.8011    1.0000 </r>
       <r>   -4.4452    1.0000 </r>
       <r>   -3.7917    1.0000 </r>
       <r>   -3.5116    1.0000 </r>
       <r>   -0.5903    1.0000 </r>
       <r>   -0.2607    1.0000 </r>
       <r>    0.5631    1.0000 </r>
       <r>    1.0597    1.0000 </r>
       <r>    1.4935    1.0000 </r>
       <r>    1.7398    1.0000 </r>
       <r>    2.3067    1.0000 </r>
       <r>    2.6179    1.0000 </r>
       <r>    3.7090    1.0000 </r>
       <r>    3.7666    1.0000 </r>
       <r>    4.1413    1.0000 </r>
       <r>    4.6275    1.0000 </r>
       <r>    7.7452    0.0000 </r>
       <r>    8.4262    0.0000 </r>
       <r>    8.5996    0.0000 </r>
       <r>    8.8704    0.0000 </r>
       <r>    8.9943    0.0000 </r>
       <r>    9.2104    0.0000 </r>
       <r>    9.7664    0.0000 </r>
       <r>   10.2456    0.0000 </r>
       <r>   10.3806    0.0000 </r>
      </set>
      <set comment="kpoint 21">
       <r>   -4.5170    1.0000 </r>
       <r>   -4.1783    1.0000 </r>
       <r>   -4.1783    1.0000 </r>
       <r>   -3.8642    1.0000 </r>
       <r>   -0.2218    1.0000 </r>
       <r>    0.1647    1.0000 </r>
       <r>    0.1647    1.0000 </r>
       <r>    0.6047    1.0000 </r>
       <r>    1.6825    1.0000 </r>
       <r>    1.9588    1.0000 </r>
       <r>    1.9588    1.0000 </r>
       <r>    2.2559    1.0000 </r>
       <r>    4.0906    1.0000 </r>
       <r>    4.2013    1.0000 </r>
       <r>    4.2013    1.0000 </r>
       <r>    4.5300    1.0000 </r>
       <r>    7.8173    0.0000 </r>
       <r>    8.2157    0.0000 </r>
       <r>    8.2157    0.0000 </r>
       <r>    8.2631    0.0000 </r>
       <r>    9.9231    0.0000 </r>
       <r>    9.9231    0.0000 </r>
       <r>    9.9844    0.0000 </r>
       <r>   10.3073    0.0000 </r>
       <r>   10.7711    0.0000 </r>
      </set>
      <set comment="kpoint 22">
       <r>   -6.0935    1.0000 </r>
       <r>   -2.7669    1.0000 </r>
       <r>   -2.7669    1.0000 </r>
       <r>   -2.7669    1.0000 </r>
       <r>   -1.4198    1.0000 </r>
       <r>   -1.4198    1.0000 </r>
       <r>   -1.4198    1.0000 </r>
       <r>    2.4621    1.0000 </r>
       <r>    2.4621    1.0000 </r>
       <r>    2.4621    1.0000 </r>
       <r>    2.9080    1.0000 </r>
       <r>    2.9080    1.0000 </r>
       <r>    2.9080    1.0000 </r>
       <r>    4.6277    1.0000 </r>
       <r>    5.4488    1.0000 </r>
       <r>    5.4488    1.0000 </r>
       <r>    6.4436    0.0000 </r>
       <r>    6.4436    0.0000 </r>
       <r>    6.4436    0.0000 </r>
       <r>    7.0852    0.0000 </r>
       <r>    7.0852    0.0000 </r>
       <r>    7.0852    0.0000 </r>
       <r>    8.1589    0.0000 </r>
       <r>    8.4111    0.0000 </r>
       <r>    8.4111    0.0000 </r>
      </set>
      <set comment="kpoint 23">
       <r>   -5.9877    1.0000 </r>
       <r>   -3.3748    1.0000 </r>
       <r>   -2.7241    1.0000 </r>
       <r>   -2.7241    1.0000 </r>
       <r>   -1.4188    1.0000 </r>
       <r>   -1.4188    1.0000 </r>
       <r>   -0.7060    1.0000 </r>
       <r>    2.1414    1.0000 </r>
       <r>    2.1414    1.0000 </r>
       <r>    2.5842    1.0000 </r>
       <r>    2.8688    1.0000 </r>
       <r>    2.8688    1.0000 </r>
       <r>    3.0028    1.0000 </r>
       <r>    4.0646    1.0000 </r>
       <r>    5.1307    1.0000 </r>
       <r>    5.3204    1.0000 </r>
       <r>    6.4946    0.0000 </r>
       <r>    6.7150    0.0000 </r>
       <r>    6.7150    0.0000 </r>
       <r>    7.3134    0.0000 </r>
       <r>    7.7337    0.0000 </r>
       <r>    7.7337    0.0000 </r>
       <r>    8.1253    0.0000 </r>
       <r>    8.4290    0.0000 </r>
       <r>    8.8394    0.0000 </r>
      </set>
      <set comment="kpoint 24">
       <r>   -5.8119    1.0000 </r>
       <r>   -3.9325    1.0000 </r>
       <r>   -2.6636    1.0000 </r>
       <r>   -2.6636    1.0000 </r>
       <r>   -1.4226    1.0000 </r>
       <r>   -1.4226    1.0000 </r>
       <r>    0.0222    1.0000 </r>
       <r>    1.8674    1.0000 </r>
       <r>    1.8674    1.0000 </r>
       <r>    2.7013    1.0000 </r>
       <r>    2.7013    1.0000 </r>
       <r>    2.7891    1.0000 </r>
       <r>    3.1598    1.0000 </r>
       <r>    3.4538    1.0000 </r>
       <r>    4.7406    1.0000 </r>
       <r>    4.9136    1.0000 </r>
       <r>    6.6008    0.0000 </r>
       <r>    7.2896    0.0000 </r>
       <r>    7.2896    0.0000 </r>
       <r>    7.6687    0.0000 </r>
       <r>    7.8880    0.0000 </r>
       <r>    8.5410    0.0000 </r>
       <r>    8.5410    0.0000 </r>
       <r>    8.8515    0.0000 </r>
       <r>    9.4100    0.0000 </r>
      </set>
      <set comment="kpoint 25">
       <r>   -5.5670    1.0000 </r>
       <r>   -4.4344    1.0000 </r>
       <r>   -2.6024    1.0000 </r>
       <r>   -2.6024    1.0000 </r>
       <r>   -1.4327    1.0000 </r>
       <r>   -1.4327    1.0000 </r>
       <r>    0.7505    1.0000 </r>
       <r>    1.6800    1.0000 </r>
       <r>    1.6800    1.0000 </r>
       <r>    2.5171    1.0000 </r>
       <r>    2.5171    1.0000 </r>
       <r>    2.8174    1.0000 </r>
       <r>    3.0779    1.0000 </r>
       <r>    3.3769    1.0000 </r>
       <r>    4.3453    1.0000 </r>
       <r>    4.4042    1.0000 </r>
       <r>    6.7683    0.0000 </r>
       <r>    7.5774    0.0000 </r>
       <r>    8.0713    0.0000 </r>
       <r>    8.0713    0.0000 </r>
       <r>    8.1368    0.0000 </r>
       <r>    9.4018    0.0000 </r>
       <r>    9.4454    0.0000 </r>
       <r>    9.4454    0.0000 </r>
       <r>   10.0529    0.0000 </r>
      </set>
      <set comment="kpoint 26">
       <r>   -5.2545    1.0000 </r>
       <r>   -4.8761    1.0000 </r>
       <r>   -2.5630    1.0000 </r>
       <r>   -2.5630    1.0000 </r>
       <r>   -1.4426    1.0000 </r>
       <r>   -1.4426    1.0000 </r>
       <r>    1.4651    1.0000 </r>
       <r>    1.5889    1.0000 </r>
       <r>    1.5889    1.0000 </r>
       <r>    2.1554    1.0000 </r>
       <r>    2.4016    1.0000 </r>
       <r>    2.4016    1.0000 </r>
       <r>    3.4503    1.0000 </r>
       <r>    3.6509    1.0000 </r>
       <r>    3.8996    1.0000 </r>
       <r>    3.9767    1.0000 </r>
       <r>    6.9943    0.0000 </r>
       <r>    7.2695    0.0000 </r>
       <r>    8.6990    0.0000 </r>
       <r>    8.9756    0.0000 </r>
       <r>    8.9756    0.0000 </r>
       <r>    9.2919    0.0000 </r>
       <r>    9.9515    0.0000 </r>
       <r>    9.9515    0.0000 </r>
       <r>   10.4387    0.0000 </r>
      </set>
      <set comment="kpoint 27">
       <r>   -5.8828    1.0000 </r>
       <r>   -3.3110    1.0000 </r>
       <r>   -3.3110    1.0000 </r>
       <r>   -2.7144    1.0000 </r>
       <r>   -1.4111    1.0000 </r>
       <r>   -0.7577    1.0000 </r>
       <r>   -0.7577    1.0000 </r>
       <r>    1.8238    1.0000 </r>
       <r>    2.2861    1.0000 </r>
       <r>    2.2861    1.0000 </r>
       <r>    2.9780    1.0000 </r>
       <r>    2.9780    1.0000 </r>
       <r>    3.0745    1.0000 </r>
       <r>    3.5098    1.0000 </r>
       <r>    4.8819    1.0000 </r>
       <r>    5.3706    1.0000 </r>
       <r>    6.6637    0.0000 </r>
       <r>    6.8039    0.0000 </r>
       <r>    6.8039    0.0000 </r>
       <r>    7.9130    0.0000 </r>
       <r>    7.9130    0.0000 </r>
       <r>    8.1209    0.0000 </r>
       <r>    8.4788    0.0000 </r>
       <r>    8.5767    0.0000 </r>
       <r>    8.8606    0.0000 </r>
      </set>
      <set comment="kpoint 28">
       <r>   -5.7085    1.0000 </r>
       <r>   -3.8554    1.0000 </r>
       <r>   -3.2113    1.0000 </r>
       <r>   -2.7171    1.0000 </r>
       <r>   -1.3888    1.0000 </r>
       <r>   -0.8484    1.0000 </r>
       <r>   -0.0975    1.0000 </r>
       <r>    1.6059    1.0000 </r>
       <r>    2.0182    1.0000 </r>
       <r>    2.5243    1.0000 </r>
       <r>    2.8578    1.0000 </r>
       <r>    2.9271    1.0000 </r>
       <r>    3.0886    1.0000 </r>
       <r>    3.1632    1.0000 </r>
       <r>    4.4834    1.0000 </r>
       <r>    5.1514    1.0000 </r>
       <r>    6.9503    0.0000 </r>
       <r>    6.9778    0.0000 </r>
       <r>    7.3866    0.0000 </r>
       <r>    8.1694    0.0000 </r>
       <r>    8.2104    0.0000 </r>
       <r>    8.6333    0.0000 </r>
       <r>    8.6955    0.0000 </r>
       <r>    9.2968    0.0000 </r>
       <r>    9.3373    0.0000 </r>
      </set>
      <set comment="kpoint 29">
       <r>   -5.4660    1.0000 </r>
       <r>   -4.3481    1.0000 </r>
       <r>   -3.0866    1.0000 </r>
       <r>   -2.7536    1.0000 </r>
       <r>   -1.3365    1.0000 </r>
       <r>   -0.9733    1.0000 </r>
       <r>    0.5450    1.0000 </r>
       <r>    1.5080    1.0000 </r>
       <r>    1.7995    1.0000 </r>
       <r>    2.3432    1.0000 </r>
       <r>    2.7554    1.0000 </r>
       <r>    2.8456    1.0000 </r>
       <r>    2.9715    1.0000 </r>
       <r>    3.4308    1.0000 </r>
       <r>    4.0586    1.0000 </r>
       <r>    4.7195    1.0000 </r>
       <r>    7.1505    0.0000 </r>
       <r>    7.5984    0.0000 </r>
       <r>    7.9687    0.0000 </r>
       <r>    8.1664    0.0000 </r>
       <r>    8.6210    0.0000 </r>
       <r>    9.0484    0.0000 </r>
       <r>    9.5717    0.0000 </r>
       <r>    9.9019    0.0000 </r>
       <r>   10.2489    0.0000 </r>
      </set>
      <set comment="kpoint 30">
       <r>   -5.1569    1.0000 </r>
       <r>   -4.7832    1.0000 </r>
       <r>   -2.9538    1.0000 </r>
       <r>   -2.8355    1.0000 </r>
       <r>   -1.2427    1.0000 </r>
       <r>   -1.1139    1.0000 </r>
       <r>    1.1625    1.0000 </r>
       <r>    1.5241    1.0000 </r>
       <r>    1.6304    1.0000 </r>
       <r>    1.7583    1.0000 </r>
       <r>    2.7432    1.0000 </r>
       <r>    2.8295    1.0000 </r>
       <r>    3.2260    1.0000 </r>
       <r>    3.6360    1.0000 </r>
       <r>    3.7892    1.0000 </r>
       <r>    4.2333    1.0000 </r>
       <r>    7.3979    0.0000 </r>
       <r>    7.6796    0.0000 </r>
       <r>    8.4199    0.0000 </r>
       <r>    9.0530    0.0000 </r>
       <r>    9.1235    0.0000 </r>
       <r>    9.3980    0.0000 </r>
       <r>    9.4902    0.0000 </r>
       <r>   10.0558    0.0000 </r>
       <r>   10.0770    0.0000 </r>
      </set>
      <set comment="kpoint 31">
       <r>   -5.5370    1.0000 </r>
       <r>   -3.7312    1.0000 </r>
       <r>   -3.7312    1.0000 </r>
       <r>   -2.8213    1.0000 </r>
       <r>   -1.3124    1.0000 </r>
       <r>   -0.2857    1.0000 </r>
       <r>   -0.2857    1.0000 </r>
       <r>    1.4675    1.0000 </r>
       <r>    2.2521    1.0000 </r>
       <r>    2.2521    1.0000 </r>
       <r>    2.3732    1.0000 </r>
       <r>    3.1274    1.0000 </r>
       <r>    3.1274    1.0000 </r>
       <r>    3.3425    1.0000 </r>
       <r>    4.0841    1.0000 </r>
       <r>    5.1996    1.0000 </r>
       <r>    6.9779    0.0000 </r>
       <r>    7.5434    0.0000 </r>
       <r>    7.5434    0.0000 </r>
       <r>    8.2652    0.0000 </r>
       <r>    8.8588    0.0000 </r>
       <r>    8.9555    0.0000 </r>
       <r>    8.9555    0.0000 </r>
       <r>    9.2042    0.0000 </r>
       <r>   10.2202    0.0000 </r>
      </set>
      <set comment="kpoint 32">
       <r>   -5.2987    1.0000 </r>
       <r>   -4.2071    1.0000 </r>
       <r>   -3.5671    1.0000 </r>
       <r>   -2.9778    1.0000 </r>
       <r>   -1.1800    1.0000 </r>
       <r>   -0.5185    1.0000 </r>
       <r>    0.2543    1.0000 </r>
       <r>    1.4566    1.0000 </r>
       <r>    1.8282    1.0000 </r>
       <r>    1.9852    1.0000 </r>
       <r>    2.5472    1.0000 </r>
       <r>    3.1366    1.0000 </r>
       <r>    3.4032    1.0000 </r>
       <r>    3.5105    1.0000 </r>
       <r>    3.6653    1.0000 </r>
       <r>    4.9405    1.0000 </r>
       <r>    7.3388    0.0000 </r>
       <r>    7.7517    0.0000 </r>
       <r>    8.3193    0.0000 </r>
       <r>    8.3747    0.0000 </r>
       <r>    8.8547    0.0000 </r>
       <r>    9.3212    0.0000 </r>
       <r>    9.6770    0.0000 </r>
       <r>    9.6920    0.0000 </r>
       <r>    9.9920    0.0000 </r>
      </set>
      <set comment="kpoint 33">
       <r>   -4.9956    1.0000 </r>
       <r>   -4.6304    1.0000 </r>
       <r>   -3.3744    1.0000 </r>
       <r>   -3.1704    1.0000 </r>
       <r>   -0.9925    1.0000 </r>
       <r>   -0.7641    1.0000 </r>
       <r>    0.7778    1.0000 </r>
       <r>    1.2983    1.0000 </r>
       <r>    1.5573    1.0000 </r>
       <r>    1.7437    1.0000 </r>
       <r>    2.8864    1.0000 </r>
       <r>    3.2142    1.0000 </r>
       <r>    3.2613    1.0000 </r>
       <r>    3.3272    1.0000 </r>
       <r>    3.9832    1.0000 </r>
       <r>    4.4901    1.0000 </r>
       <r>    7.9965    0.0000 </r>
       <r>    7.9979    0.0000 </r>
       <r>    8.2503    0.0000 </r>
       <r>    8.8428    0.0000 </r>
       <r>    9.1296    0.0000 </r>
       <r>    9.2269    0.0000 </r>
       <r>    9.6104    0.0000 </r>
       <r>    9.8326    0.0000 </r>
       <r>   10.2098    0.0000 </r>
      </set>
      <set comment="kpoint 34">
       <r>   -5.0668    1.0000 </r>
       <r>   -4.0162    1.0000 </r>
       <r>   -4.0162    1.0000 </r>
       <r>   -3.2432    1.0000 </r>
       <r>   -0.9673    1.0000 </r>
       <r>   -0.0736    1.0000 </r>
       <r>   -0.0736    1.0000 </r>
       <r>    1.3213    1.0000 </r>
       <r>    1.5230    1.0000 </r>
       <r>    2.2292    1.0000 </r>
       <r>    2.2292    1.0000 </r>
       <r>    3.2584    1.0000 </r>
       <r>    3.6215    1.0000 </r>
       <r>    3.6215    1.0000 </r>
       <r>    3.6957    1.0000 </r>
       <r>    4.9131    1.0000 </r>
       <r>    7.3837    0.0000 </r>
       <r>    8.3913    0.0000 </r>
       <r>    8.5174    0.0000 </r>
       <r>    8.5174    0.0000 </r>
       <r>    9.2692    0.0000 </r>
       <r>    9.2949    0.0000 </r>
       <r>    9.2949    0.0000 </r>
       <r>    9.4928    0.0000 </r>
       <r>   10.1768    0.0000 </r>
      </set>
      <set comment="kpoint 35">
       <r>   -4.7730    1.0000 </r>
       <r>   -4.4209    1.0000 </r>
       <r>   -3.7832    1.0000 </r>
       <r>   -3.5197    1.0000 </r>
       <r>   -0.7045    1.0000 </r>
       <r>   -0.4014    1.0000 </r>
       <r>    0.3738    1.0000 </r>
       <r>    0.8362    1.0000 </r>
       <r>    1.6890    1.0000 </r>
       <r>    1.9327    1.0000 </r>
       <r>    2.5269    1.0000 </r>
       <r>    2.8730    1.0000 </r>
       <r>    3.7355    1.0000 </r>
       <r>    3.7900    1.0000 </r>
       <r>    4.1453    1.0000 </r>
       <r>    4.6160    1.0000 </r>
       <r>    7.7746    0.0000 </r>
       <r>    8.4454    0.0000 </r>
       <r>    8.4956    0.0000 </r>
       <r>    8.6782    0.0000 </r>
       <r>    8.9489    0.0000 </r>
       <r>    9.0991    0.0000 </r>
       <r>    9.4070    0.0000 </r>
       <r>   10.1258    0.0000 </r>
       <r>   10.3728    0.0000 </r>
      </set>
      <set comment="kpoint 36">
       <r>   -4.4926    1.0000 </r>
       <r>   -4.1600    1.0000 </r>
       <r>   -4.1600    1.0000 </r>
       <r>   -3.8556    1.0000 </r>
       <r>   -0.3790    1.0000 </r>
       <r>   -0.0173    1.0000 </r>
       <r>   -0.0173    1.0000 </r>
       <r>    0.3950    1.0000 </r>
       <r>    1.9057    1.0000 </r>
       <r>    2.1912    1.0000 </r>
       <r>    2.1912    1.0000 </r>
       <r>    2.5092    1.0000 </r>
       <r>    4.1061    1.0000 </r>
       <r>    4.2122    1.0000 </r>
       <r>    4.2122    1.0000 </r>
       <r>    4.5308    1.0000 </r>
       <r>    7.8371    0.0000 </r>
       <r>    8.2176    0.0000 </r>
       <r>    8.2176    0.0000 </r>
       <r>    8.2354    0.0000 </r>
       <r>    9.6294    0.0000 </r>
       <r>    9.6294    0.0000 </r>
       <r>    9.8214    0.0000 </r>
       <r>    9.9309    0.0000 </r>
       <r>   10.5220    0.0000 </r>
      </set>
      <set comment="kpoint 37">
       <r>   -5.7788    1.0000 </r>
       <r>   -3.2631    1.0000 </r>
       <r>   -3.2631    1.0000 </r>
       <r>   -3.2631    1.0000 </r>
       <r>   -0.8314    1.0000 </r>
       <r>   -0.8314    1.0000 </r>
       <r>   -0.8314    1.0000 </r>
       <r>    2.0270    1.0000 </r>
       <r>    2.0270    1.0000 </r>
       <r>    2.0270    1.0000 </r>
       <r>    2.9678    1.0000 </r>
       <r>    3.1656    1.0000 </r>
       <r>    3.1656    1.0000 </r>
       <r>    3.1656    1.0000 </r>
       <r>    5.1140    1.0000 </r>
       <r>    5.1140    1.0000 </r>
       <r>    6.7804    0.0000 </r>
       <r>    6.7804    0.0000 </r>
       <r>    6.7804    0.0000 </r>
       <r>    7.8372    0.0000 </r>
       <r>    8.6267    0.0000 </r>
       <r>    8.6267    0.0000 </r>
       <r>    8.6267    0.0000 </r>
       <r>    8.8781    0.0000 </r>
       <r>    8.8781    0.0000 </r>
      </set>
      <set comment="kpoint 38">
       <r>   -5.6064    1.0000 </r>
       <r>   -3.7874    1.0000 </r>
       <r>   -3.1950    1.0000 </r>
       <r>   -3.1950    1.0000 </r>
       <r>   -0.9404    1.0000 </r>
       <r>   -0.9404    1.0000 </r>
       <r>   -0.2609    1.0000 </r>
       <r>    1.8588    1.0000 </r>
       <r>    1.8588    1.0000 </r>
       <r>    2.3643    1.0000 </r>
       <r>    2.4050    1.0000 </r>
       <r>    3.1911    1.0000 </r>
       <r>    3.1911    1.0000 </r>
       <r>    3.3161    1.0000 </r>
       <r>    4.7796    1.0000 </r>
       <r>    4.9876    1.0000 </r>
       <r>    6.9681    0.0000 </r>
       <r>    7.0965    0.0000 </r>
       <r>    7.0965    0.0000 </r>
       <r>    7.8911    0.0000 </r>
       <r>    8.7611    0.0000 </r>
       <r>    8.8764    0.0000 </r>
       <r>    9.2901    0.0000 </r>
       <r>    9.4699    0.0000 </r>
       <r>    9.4699    0.0000 </r>
      </set>
      <set comment="kpoint 39">
       <r>   -5.3668    1.0000 </r>
       <r>   -4.2673    1.0000 </r>
       <r>   -3.1258    1.0000 </r>
       <r>   -3.1258    1.0000 </r>
       <r>   -1.0531    1.0000 </r>
       <r>   -1.0531    1.0000 </r>
       <r>    0.2833    1.0000 </r>
       <r>    1.7806    1.0000 </r>
       <r>    1.7806    1.0000 </r>
       <r>    1.8562    1.0000 </r>
       <r>    2.8232    1.0000 </r>
       <r>    3.1124    1.0000 </r>
       <r>    3.1124    1.0000 </r>
       <r>    3.5231    1.0000 </r>
       <r>    4.4260    1.0000 </r>
       <r>    4.5452    1.0000 </r>
       <r>    7.2152    0.0000 </r>
       <r>    7.7084    0.0000 </r>
       <r>    7.7084    0.0000 </r>
       <r>    7.9927    0.0000 </r>
       <r>    8.8591    0.0000 </r>
       <r>    9.2286    0.0000 </r>
       <r>    9.7620    0.0000 </r>
       <r>   10.2704    0.0000 </r>
       <r>   10.2704    0.0000 </r>
      </set>
      <set comment="kpoint 40">
       <r>   -5.0617    1.0000 </r>
       <r>   -4.6940    1.0000 </r>
       <r>   -3.0807    1.0000 </r>
       <r>   -3.0807    1.0000 </r>
       <r>   -1.1262    1.0000 </r>
       <r>   -1.1262    1.0000 </r>
       <r>    0.8069    1.0000 </r>
       <r>    1.3261    1.0000 </r>
       <r>    1.7587    1.0000 </r>
       <r>    1.7587    1.0000 </r>
       <r>    3.0371    1.0000 </r>
       <r>    3.0371    1.0000 </r>
       <r>    3.3735    1.0000 </r>
       <r>    3.7824    1.0000 </r>
       <r>    3.9693    1.0000 </r>
       <r>    4.0872    1.0000 </r>
       <r>    7.5028    0.0000 </r>
       <r>    7.7956    0.0000 </r>
       <r>    8.5195    0.0000 </r>
       <r>    8.5195    0.0000 </r>
       <r>    9.3891    0.0000 </r>
       <r>    9.4637    0.0000 </r>
       <r>    9.4637    0.0000 </r>
       <r>    9.6491    0.0000 </r>
       <r>   10.2377    0.0000 </r>
      </set>
      <set comment="kpoint 41">
       <r>   -5.4373    1.0000 </r>
       <r>   -3.6811    1.0000 </r>
       <r>   -3.6811    1.0000 </r>
       <r>   -3.1874    1.0000 </r>
       <r>   -1.0457    1.0000 </r>
       <r>   -0.4903    1.0000 </r>
       <r>   -0.4903    1.0000 </r>
       <r>    1.8016    1.0000 </r>
       <r>    1.8618    1.0000 </r>
       <r>    2.2544    1.0000 </r>
       <r>    2.2544    1.0000 </r>
       <r>    3.3648    1.0000 </r>
       <r>    3.3648    1.0000 </r>
       <r>    3.4263    1.0000 </r>
       <r>    4.5325    1.0000 </r>
       <r>    5.0337    1.0000 </r>
       <r>    7.1003    0.0000 </r>
       <r>    7.2871    0.0000 </r>
       <r>    7.2871    0.0000 </r>
       <r>    7.7785    0.0000 </r>
       <r>    8.9587    0.0000 </r>
       <r>    9.2441    0.0000 </r>
       <r>    9.6939    0.0000 </r>
       <r>    9.6939    0.0000 </r>
       <r>   10.3379    0.0000 </r>
      </set>
      <set comment="kpoint 42">
       <r>   -5.2027    1.0000 </r>
       <r>   -4.1372    1.0000 </r>
       <r>   -3.5484    1.0000 </r>
       <r>   -3.2130    1.0000 </r>
       <r>   -1.1059    1.0000 </r>
       <r>   -0.7345    1.0000 </r>
       <r>   -0.0520    1.0000 </r>
       <r>    1.3402    1.0000 </r>
       <r>    1.8397    1.0000 </r>
       <r>    2.1657    1.0000 </r>
       <r>    2.7447    1.0000 </r>
       <r>    3.3587    1.0000 </r>
       <r>    3.4940    1.0000 </r>
       <r>    3.6163    1.0000 </r>
       <r>    4.1553    1.0000 </r>
       <r>    4.8068    1.0000 </r>
       <r>    7.4514    0.0000 </r>
       <r>    7.5355    0.0000 </r>
       <r>    7.8837    0.0000 </r>
       <r>    7.9478    0.0000 </r>
       <r>    8.8914    0.0000 </r>
       <r>    9.5459    0.0000 </r>
       <r>    9.8552    0.0000 </r>
       <r>   10.0120    0.0000 </r>
       <r>   10.2156    0.0000 </r>
      </set>
      <set comment="kpoint 43">
       <r>   -4.9050    1.0000 </r>
       <r>   -4.5480    1.0000 </r>
       <r>   -3.4088    1.0000 </r>
       <r>   -3.2889    1.0000 </r>
       <r>   -1.0750    1.0000 </r>
       <r>   -0.9432    1.0000 </r>
       <r>    0.3893    1.0000 </r>
       <r>    0.8500    1.0000 </r>
       <r>    1.9400    1.0000 </r>
       <r>    2.0606    1.0000 </r>
       <r>    3.2601    1.0000 </r>
       <r>    3.3807    1.0000 </r>
       <r>    3.4463    1.0000 </r>
       <r>    3.7348    1.0000 </r>
       <r>    3.9584    1.0000 </r>
       <r>    4.3859    1.0000 </r>
       <r>    7.8102    0.0000 </r>
       <r>    8.0207    0.0000 </r>
       <r>    8.0922    0.0000 </r>
       <r>    8.6743    0.0000 </r>
       <r>    8.9251    0.0000 </r>
       <r>    9.0437    0.0000 </r>
       <r>    9.5686    0.0000 </r>
       <r>    9.5933    0.0000 </r>
       <r>   10.0074    0.0000 </r>
      </set>
      <set comment="kpoint 44">
       <r>   -4.9759    1.0000 </r>
       <r>   -3.9650    1.0000 </r>
       <r>   -3.9650    1.0000 </r>
       <r>   -3.3594    1.0000 </r>
       <r>   -1.0721    1.0000 </r>
       <r>   -0.3935    1.0000 </r>
       <r>   -0.3935    1.0000 </r>
       <r>    0.8467    1.0000 </r>
       <r>    1.9742    1.0000 </r>
       <r>    2.5895    1.0000 </r>
       <r>    2.5895    1.0000 </r>
       <r>    3.7159    1.0000 </r>
       <r>    3.7159    1.0000 </r>
       <r>    3.7656    1.0000 </r>
       <r>    3.7887    1.0000 </r>
       <r>    4.8410    1.0000 </r>
       <r>    7.4869    0.0000 </r>
       <r>    7.9686    0.0000 </r>
       <r>    8.1022    0.0000 </r>
       <r>    8.1022    0.0000 </r>
       <r>    9.1425    0.0000 </r>
       <r>    9.3288    0.0000 </r>
       <r>    9.3288    0.0000 </r>
       <r>    9.3352    0.0000 </r>
       <r>   10.6357    0.0000 </r>
      </set>
      <set comment="kpoint 45">
       <r>   -4.6899    1.0000 </r>
       <r>   -4.3501    1.0000 </r>
       <r>   -3.7634    1.0000 </r>
       <r>   -3.5524    1.0000 </r>
       <r>   -0.9320    1.0000 </r>
       <r>   -0.6974    1.0000 </r>
       <r>   -0.0209    1.0000 </r>
       <r>    0.3916    1.0000 </r>
       <r>    2.1639    1.0000 </r>
       <r>    2.3813    1.0000 </r>
       <r>    3.0040    1.0000 </r>
       <r>    3.4020    1.0000 </r>
       <r>    3.8152    1.0000 </r>
       <r>    3.8593    1.0000 </r>
       <r>    4.1535    1.0000 </r>
       <r>    4.5781    1.0000 </r>
       <r>    7.8537    0.0000 </r>
       <r>    8.1576    0.0000 </r>
       <r>    8.2733    0.0000 </r>
       <r>    8.4671    0.0000 </r>
       <r>    8.9115    0.0000 </r>
       <r>    8.9514    0.0000 </r>
       <r>    8.9778    0.0000 </r>
       <r>    9.7406    0.0000 </r>
       <r>    9.7626    0.0000 </r>
      </set>
      <set comment="kpoint 46">
       <r>   -4.4216    1.0000 </r>
       <r>   -4.1083    1.0000 </r>
       <r>   -4.1083    1.0000 </r>
       <r>   -3.8356    1.0000 </r>
       <r>   -0.6994    1.0000 </r>
       <r>   -0.3905    1.0000 </r>
       <r>   -0.3905    1.0000 </r>
       <r>   -0.0256    1.0000 </r>
       <r>    2.4248    1.0000 </r>
       <r>    2.7119    1.0000 </r>
       <r>    2.7119    1.0000 </r>
       <r>    3.0542    1.0000 </r>
       <r>    4.1507    1.0000 </r>
       <r>    4.2421    1.0000 </r>
       <r>    4.2421    1.0000 </r>
       <r>    4.5306    1.0000 </r>
       <r>    7.8800    0.0000 </r>
       <r>    8.0983    0.0000 </r>
       <r>    8.1833    0.0000 </r>
       <r>    8.1833    0.0000 </r>
       <r>    9.1682    0.0000 </r>
       <r>    9.1682    0.0000 </r>
       <r>    9.4152    0.0000 </r>
       <r>    9.5030    0.0000 </r>
       <r>    9.8760    0.0000 </r>
      </set>
      <set comment="kpoint 47">
       <r>   -5.2724    1.0000 </r>
       <r>   -3.6097    1.0000 </r>
       <r>   -3.6097    1.0000 </r>
       <r>   -3.6097    1.0000 </r>
       <r>   -0.7400    1.0000 </r>
[...]
       <r>   -1.0085    1.0000 </r>
       <r>   -0.1007    1.0000 </r>
       <r>    3.2323    1.0000 </r>
       <r>    3.2323    1.0000 </r>
       <r>    3.2323    1.0000 </r>
       <r>    4.0261    1.0000 </r>
       <r>    4.0261    1.0000 </r>
       <r>    4.0261    1.0000 </r>
       <r>    4.5661    1.0000 </r>
       <r>    4.5661    1.0000 </r>
       <r>    7.2308    0.0000 </r>
       <r>    7.7647    0.0000 </r>
       <r>    7.7647    0.0000 </r>
       <r>    7.7647    0.0000 </r>
       <r>    9.0809    0.0000 </r>
       <r>    9.0809    0.0000 </r>
       <r>    9.2300    0.0000 </r>
       <r>    9.2300    0.0000 </r>
       <r>    9.2300    0.0000 </r>
      </set>
      <set comment="kpoint 54">
       <r>   -4.3792    1.0000 </r>
       <r>   -4.1024    1.0000 </r>
       <r>   -3.7692    1.0000 </r>
       <r>   -3.7692    1.0000 </r>
       <r>   -1.1618    1.0000 </r>
       <r>   -1.1618    1.0000 </r>
       <r>   -0.7987    1.0000 </r>
       <r>   -0.4902    1.0000 </r>
       <r>    3.3713    1.0000 </r>
       <r>    3.3713    1.0000 </r>
       <r>    3.8750    1.0000 </r>
       <r>    4.1273    1.0000 </r>
       <r>    4.1273    1.0000 </r>
       <r>    4.2001    1.0000 </r>
       <r>    4.3859    1.0000 </r>
       <r>    4.3875    1.0000 </r>
       <r>    7.3680    0.0000 </r>
       <r>    7.6843    0.0000 </r>
       <r>    7.8906    0.0000 </r>
       <r>    7.8906    0.0000 </r>
       <r>    8.8632    0.0000 </r>
       <r>    8.8632    0.0000 </r>
       <r>    8.8834    0.0000 </r>
       <r>    8.9227    0.0000 </r>
       <r>    9.2196    0.0000 </r>
      </set>
      <set comment="kpoint 55">
       <r>   -4.1732    1.0000 </r>
       <r>   -3.9598    1.0000 </r>
       <r>   -3.9598    1.0000 </r>
       <r>   -3.8403    1.0000 </r>
       <r>   -1.1906    1.0000 </r>
       <r>   -1.0617    1.0000 </r>
       <r>   -1.0617    1.0000 </r>
       <r>   -0.8287    1.0000 </r>
       <r>    3.7009    1.0000 </r>
       <r>    3.8836    1.0000 </r>
       <r>    3.8836    1.0000 </r>
       <r>    4.2020    1.0000 </r>
       <r>    4.2991    1.0000 </r>
       <r>    4.3271    1.0000 </r>
       <r>    4.3271    1.0000 </r>
       <r>    4.4970    1.0000 </r>
       <r>    7.3195    0.0000 </r>
       <r>    7.5876    0.0000 </r>
       <r>    7.5876    0.0000 </r>
       <r>    7.6552    0.0000 </r>
       <r>    8.8692    0.0000 </r>
       <r>    8.8692    0.0000 </r>
       <r>    8.9415    0.0000 </r>
       <r>    9.0297    0.0000 </r>
       <r>    9.0342    0.0000 </r>
      </set>
      <set comment="kpoint 56">
       <r>   -4.0304    1.0000 </r>
       <r>   -3.9110    1.0000 </r>
       <r>   -3.9110    1.0000 </r>
       <r>   -3.9110    1.0000 </r>
       <r>   -1.2242    1.0000 </r>
       <r>   -1.2242    1.0000 </r>
       <r>   -1.2242    1.0000 </r>
       <r>   -1.0957    1.0000 </r>
       <r>    4.2338    1.0000 </r>
       <r>    4.2338    1.0000 </r>
       <r>    4.2338    1.0000 </r>
       <r>    4.3803    1.0000 </r>
       <r>    4.3803    1.0000 </r>
       <r>    4.3803    1.0000 </r>
       <r>    4.4492    1.0000 </r>
       <r>    4.4492    1.0000 </r>
       <r>    7.0957    0.0000 </r>
       <r>    7.2771    0.0000 </r>
       <r>    7.2771    0.0000 </r>
       <r>    7.2771    0.0000 </r>
       <r>    8.9173    0.0000 </r>
       <r>    8.9173    0.0000 </r>
       <r>    8.9173    0.0000 </r>
       <r>    8.9786    0.0000 </r>
       <r>    8.9786    0.0000 </r>
      </set>
     </set>
    </set>
   </array>
  </eigenvalues>
  <separator name="orbital magnetization" >
   <v name="MAGDIPOLOUT">      0.00000000      0.00000000      0.00000000</v>
  </separator>
  <dos>
   <i name="efermi">      5.91540474 </i>
   <total>
    <array>
     <dimension dim="1">gridpoints</dimension>
     <dimension dim="2">spin</dimension>
     <field>energy</field>
     <field>total</field>
     <field>integrated</field>
     <set>
      <set comment="spin 1">
       <r>    -7.1998     0.0000     0.0000 </r>
       <r>    -7.1363     0.0000     0.0000 </r>
       <r>    -7.0728     0.0000     0.0000 </r>
       <r>    -7.0093     0.0000     0.0000 </r>
       <r>    -6.9458     0.0000     0.0000 </r>
       <r>    -6.8823     0.0000     0.0000 </r>
       <r>    -6.8188     0.0000     0.0000 </r>
       <r>    -6.7553     0.0000     0.0000 </r>
       <r>    -6.6918     0.0000     0.0000 </r>
       <r>    -6.6283     0.0000     0.0000 </r>
       <r>    -6.5648     0.0000     0.0000 </r>
       <r>    -6.5013     0.0000     0.0000 </r>
       <r>    -6.4378     0.0000     0.0000 </r>
       <r>    -6.3743     0.0004     0.0000 </r>
       <r>    -6.3108     0.0053     0.0004 </r>
       <r>    -6.2473     0.0344     0.0026 </r>
       <r>    -6.1838     0.1239     0.0104 </r>
       <r>    -6.1203     0.2755     0.0279 </r>
       <r>    -6.0568     0.4456     0.0562 </r>
       <r>    -5.9933     0.5837     0.0933 </r>
       <r>    -5.9298     0.6713     0.1359 </r>
       <r>    -5.8663     0.7846     0.1857 </r>
       <r>    -5.8028     0.8934     0.2425 </r>
       <r>    -5.7393     0.9430     0.3023 </r>
       <r>    -5.6758     0.9685     0.3638 </r>
       <r>    -5.6123     1.0556     0.4309 </r>
       <r>    -5.5488     1.2266     0.5088 </r>
       <r>    -5.4853     1.2917     0.5908 </r>
       <r>    -5.4218     1.2026     0.6672 </r>
       <r>    -5.3583     1.1891     0.7427 </r>
       <r>    -5.2948     1.4199     0.8328 </r>
       <r>    -5.2313     1.6092     0.9350 </r>
       <r>    -5.1678     1.5795     1.0353 </r>
       <r>    -5.1043     1.4872     1.1298 </r>
       <r>    -5.0408     1.5511     1.2283 </r>
       <r>    -4.9773     1.6579     1.3335 </r>
       <r>    -4.9138     1.6714     1.4397 </r>
       <r>    -4.8503     1.7979     1.5538 </r>
       <r>    -4.7868     2.0542     1.6843 </r>
       <r>    -4.7233     2.1057     1.8180 </r>
       <r>    -4.6598     1.9198     1.9399 </r>
       <r>    -4.5963     1.7888     2.0535 </r>
       <r>    -4.5328     1.8560     2.1714 </r>
       <r>    -4.4693     2.1622     2.3087 </r>
       <r>    -4.4058     2.5634     2.4714 </r>
       <r>    -4.3423     2.6138     2.6374 </r>
       <r>    -4.2788     2.3416     2.7861 </r>
       <r>    -4.2153     2.3623     2.9361 </r>
       <r>    -4.1518     2.6169     3.1023 </r>
       <r>    -4.0883     2.6759     3.2722 </r>
       <r>    -4.0248     2.7515     3.4470 </r>
       <r>    -3.9613     3.0085     3.6380 </r>
       <r>    -3.8978     3.3179     3.8487 </r>
       <r>    -3.8343     3.7765     4.0885 </r>
       <r>    -3.7708     4.0689     4.3469 </r>
       <r>    -3.7073     3.5641     4.5732 </r>
       <r>    -3.6438     2.8236     4.7525 </r>
       <r>    -3.5803     2.9781     4.9416 </r>
       <r>    -3.5168     3.3783     5.1562 </r>
       <r>    -3.4533     2.9981     5.3465 </r>
       <r>    -3.3897     2.6411     5.5143 </r>
       <r>    -3.3262     2.7863     5.6912 </r>
       <r>    -3.2627     3.0440     5.8845 </r>
       <r>    -3.1992     3.3470     6.0970 </r>
       <r>    -3.1357     3.2688     6.3046 </r>
       <r>    -3.0722     2.6243     6.4712 </r>
       <r>    -3.0087     1.8933     6.5915 </r>
       <r>    -2.9452     1.5445     6.6896 </r>
       <r>    -2.8817     1.5476     6.7878 </r>
       <r>    -2.8182     1.8851     6.9075 </r>
       <r>    -2.7547     2.5648     7.0704 </r>
       <r>    -2.6912     2.9275     7.2563 </r>
       <r>    -2.6277     2.5839     7.4204 </r>
       <r>    -2.5642     1.9882     7.5466 </r>
       <r>    -2.5007     1.3654     7.6333 </r>
       <r>    -2.4372     0.8881     7.6897 </r>
       <r>    -2.3737     0.7059     7.7346 </r>
       <r>    -2.3102     0.7046     7.7793 </r>
       <r>    -2.2467     0.7796     7.8288 </r>
       <r>    -2.1832     0.8510     7.8828 </r>
       <r>    -2.1197     0.9337     7.9421 </r>
       <r>    -2.0562     1.0453     8.0085 </r>
       <r>    -1.9927     1.0545     8.0755 </r>
       <r>    -1.9292     0.8460     8.1292 </r>
       <r>    -1.8657     0.5852     8.1664 </r>
       <r>    -1.8022     0.4652     8.1959 </r>
       <r>    -1.7387     0.4519     8.2246 </r>
       <r>    -1.6752     0.5080     8.2569 </r>
       <r>    -1.6117     0.5914     8.2944 </r>
       <r>    -1.5482     0.8938     8.3512 </r>
       <r>    -1.4847     1.9921     8.4777 </r>
       <r>    -1.4212     3.4556     8.6971 </r>
       <r>    -1.3577     3.5825     8.9246 </r>
       <r>    -1.2942     2.6217     9.0911 </r>
       <r>    -1.2307     2.3769     9.2420 </r>
       <r>    -1.1672     3.3181     9.4527 </r>
       <r>    -1.1037     4.7209     9.7525 </r>
       <r>    -1.0402     5.4704    10.0999 </r>
       <r>    -0.9767     5.3561    10.4400 </r>
       <r>    -0.9132     4.6301    10.7340 </r>
       <r>    -0.8497     3.6687    10.9670 </r>
       <r>    -0.7862     3.7187    11.2031 </r>
       <r>    -0.7227     4.3229    11.4776 </r>
       <r>    -0.6592     3.6613    11.7101 </r>
       <r>    -0.5957     2.1298    11.8454 </r>
       <r>    -0.5322     1.5923    11.9465 </r>
       <r>    -0.4687     2.2326    12.0883 </r>
       <r>    -0.4052     2.8635    12.2701 </r>
       <r>    -0.3417     2.5827    12.4341 </r>
       <r>    -0.2782     1.8257    12.5501 </r>
       <r>    -0.2147     1.3533    12.6360 </r>
       <r>    -0.1512     1.3827    12.7238 </r>
       <r>    -0.0877     2.2243    12.8650 </r>
       <r>    -0.0242     3.0627    13.0595 </r>
       <r>     0.0393     2.6315    13.2266 </r>
       <r>     0.1028     1.5190    13.3231 </r>
       <r>     0.1663     0.8358    13.3762 </r>
       <r>     0.2298     0.7859    13.4261 </r>
       <r>     0.2933     1.2048    13.5026 </r>
       <r>     0.3568     1.8903    13.6226 </r>
       <r>     0.4203     2.1289    13.7578 </r>
       <r>     0.4838     1.5121    13.8538 </r>
       <r>     0.5473     0.9883    13.9166 </r>
       <r>     0.6108     0.8459    13.9703 </r>
       <r>     0.6743     0.7485    14.0178 </r>
       <r>     0.7378     0.9971    14.0811 </r>
       <r>     0.8013     1.7130    14.1899 </r>
       <r>     0.8648     2.0408    14.3195 </r>
       <r>     0.9283     1.4404    14.4110 </r>
       <r>     0.9919     0.7120    14.4562 </r>
       <r>     1.0554     0.4425    14.4843 </r>
       <r>     1.1189     0.4743    14.5144 </r>
       <r>     1.1824     0.6143    14.5534 </r>
       <r>     1.2459     0.9715    14.6151 </r>
       <r>     1.3094     1.7534    14.7265 </r>
       <r>     1.3729     2.4188    14.8800 </r>
       <r>     1.4364     2.7709    15.0560 </r>
       <r>     1.4999     3.4360    15.2742 </r>
       <r>     1.5634     4.1613    15.5384 </r>
       <r>     1.6269     4.3177    15.8126 </r>
       <r>     1.6904     4.1183    16.0741 </r>
       <r>     1.7539     4.3877    16.3528 </r>
       <r>     1.8174     5.1239    16.6781 </r>
       <r>     1.8809     5.2929    17.0143 </r>
       <r>     1.9444     4.6094    17.3070 </r>
       <r>     2.0079     3.8154    17.5492 </r>
       <r>     2.0714     3.3623    17.7627 </r>
       <r>     2.1349     3.5586    17.9887 </r>
       <r>     2.1984     4.2424    18.2581 </r>
       <r>     2.2619     4.6380    18.5526 </r>
       <r>     2.3254     4.6413    18.8474 </r>
       <r>     2.3889     4.7165    19.1469 </r>
       <r>     2.4524     4.7453    19.4482 </r>
       <r>     2.5159     4.6411    19.7429 </r>
       <r>     2.5794     4.5346    20.0309 </r>
       <r>     2.6429     4.3458    20.3069 </r>
       <r>     2.7064     4.6019    20.5991 </r>
       <r>     2.7699     5.4440    20.9448 </r>
       <r>     2.8334     6.1818    21.3373 </r>
       <r>     2.8969     6.4720    21.7483 </r>
       <r>     2.9604     6.2793    22.1471 </r>
       <r>     3.0239     6.0980    22.5343 </r>
       <r>     3.0874     6.0581    22.9190 </r>
       <r>     3.1509     5.7909    23.2867 </r>
       <r>     3.2144     5.3756    23.6281 </r>
       <r>     3.2779     5.2921    23.9641 </r>
       <r>     3.3414     5.9579    24.3425 </r>
       <r>     3.4049     6.6538    24.7650 </r>
       <r>     3.4684     6.1628    25.1563 </r>
       <r>     3.5319     4.9589    25.4712 </r>
       <r>     3.5954     4.4574    25.7543 </r>
       <r>     3.6589     5.0590    26.0755 </r>
       <r>     3.7224     5.7355    26.4398 </r>
       <r>     3.7859     5.8590    26.8118 </r>
       <r>     3.8494     5.4560    27.1583 </r>
       <r>     3.9129     4.9126    27.4702 </r>
       <r>     3.9764     4.6810    27.7675 </r>
       <r>     4.0399     4.4747    28.0516 </r>
       <r>     4.1034     4.6290    28.3456 </r>
       <r>     4.1669     5.3942    28.6881 </r>
       <r>     4.2304     5.6039    29.0440 </r>
       <r>     4.2939     4.8019    29.3489 </r>
       <r>     4.3574     3.9097    29.5972 </r>
       <r>     4.4209     3.6162    29.8268 </r>
       <r>     4.4844     3.9757    30.0793 </r>
       <r>     4.5479     4.3078    30.3528 </r>
       <r>     4.6114     3.6732    30.5861 </r>
       <r>     4.6749     2.6303    30.7531 </r>
       <r>     4.7384     2.1441    30.8893 </r>
       <r>     4.8019     2.0926    31.0221 </r>
       <r>     4.8654     2.0380    31.1516 </r>
       <r>     4.9289     2.0819    31.2838 </r>
       <r>     4.9924     2.0568    31.4144 </r>
       <r>     5.0559     1.6294    31.5178 </r>
       <r>     5.1194     1.2856    31.5995 </r>
       <r>     5.1829     1.2292    31.6775 </r>
       <r>     5.2464     1.0926    31.7469 </r>
       <r>     5.3100     0.9599    31.8079 </r>
       <r>     5.3735     0.9457    31.8679 </r>
       <r>     5.4370     0.8415    31.9214 </r>
       <r>     5.5005     0.5934    31.9590 </r>
       <r>     5.5640     0.3467    31.9811 </r>
       <r>     5.6275     0.1874    31.9930 </r>
       <r>     5.6910     0.0841    31.9983 </r>
       <r>     5.7545     0.0232    31.9998 </r>
       <r>     5.8180     0.0033    32.0000 </r>
       <r>     5.8815     0.0002    32.0000 </r>
       <r>     5.9450     0.0000    32.0000 </r>
       <r>     6.0085     0.0002    32.0000 </r>
       <r>     6.0720     0.0029    32.0002 </r>
       <r>     6.1355     0.0209    32.0015 </r>
       <r>     6.1990     0.0763    32.0064 </r>
       <r>     6.2625     0.1558    32.0163 </r>
       <r>     6.3260     0.2667    32.0332 </r>
       <r>     6.3895     0.5763    32.0698 </r>
       <r>     6.4530     1.0530    32.1367 </r>
       <r>     6.5165     1.2696    32.2173 </r>
       <r>     6.5800     1.2436    32.2962 </r>
       <r>     6.6435     1.3628    32.3828 </r>
       <r>     6.7070     1.5957    32.4841 </r>
       <r>     6.7705     1.7101    32.5927 </r>
       <r>     6.8340     1.6220    32.6957 </r>
       <r>     6.8975     1.7221    32.8051 </r>
       <r>     6.9610     2.3895    32.9568 </r>
       <r>     7.0245     2.9063    33.1414 </r>
       <r>     7.0880     2.8112    33.3199 </r>
       <r>     7.1515     2.5133    33.4795 </r>
       <r>     7.2150     2.5360    33.6405 </r>
       <r>     7.2785     3.2419    33.8464 </r>
       <r>     7.3420     3.8832    34.0930 </r>
       <r>     7.4055     3.8111    34.3350 </r>
       <r>     7.4690     3.5767    34.5621 </r>
       <r>     7.5325     3.7932    34.8030 </r>
       <r>     7.5960     4.2803    35.0748 </r>
       <r>     7.6595     4.8194    35.3808 </r>
       <r>     7.7230     5.6350    35.7387 </r>
       <r>     7.7865     6.3598    36.1425 </r>
       <r>     7.8500     6.6562    36.5652 </r>
       <r>     7.9135     6.9186    37.0045 </r>
       <r>     7.9770     6.8464    37.4393 </r>
       <r>     8.0405     5.9208    37.8153 </r>
       <r>     8.1040     5.1918    38.1449 </r>
       <r>     8.1675     5.4948    38.4939 </r>
       <r>     8.2310     5.8320    38.8642 </r>
       <r>     8.2945     5.1329    39.1902 </r>
       <r>     8.3580     4.2244    39.4584 </r>
       <r>     8.4215     4.2720    39.7297 </r>
       <r>     8.4850     4.7206    40.0295 </r>
       <r>     8.5485     4.8922    40.3401 </r>
       <r>     8.6120     4.9239    40.6528 </r>
       <r>     8.6755     4.8296    40.9595 </r>
       <r>     8.7390     4.5233    41.2467 </r>
       <r>     8.8025     5.0662    41.5684 </r>
       <r>     8.8660     7.1790    42.0243 </r>
       <r>     8.9295     9.0358    42.5981 </r>
       <r>     8.9930     8.6992    43.1505 </r>
       <r>     9.0565     7.1550    43.6049 </r>
       <r>     9.1200     6.1537    43.9956 </r>
       <r>     9.1835     5.9986    44.3766 </r>
       <r>     9.2470     6.4049    44.7833 </r>
       <r>     9.3105     6.9020    45.2216 </r>
       <r>     9.3740     7.0053    45.6664 </r>
       <r>     9.4375     6.5310    46.0811 </r>
       <r>     9.5010     5.6692    46.4411 </r>
       <r>     9.5645     5.1040    46.7652 </r>
       <r>     9.6281     4.9792    47.0814 </r>
       <r>     9.6916     4.6660    47.3777 </r>
       <r>     9.7551     4.1109    47.6388 </r>
       <r>     9.8186     3.5848    47.8664 </r>
       <r>     9.8821     3.4988    48.0886 </r>
       <r>     9.9456     3.8100    48.3305 </r>
       <r>    10.0091     3.9891    48.5838 </r>
       <r>    10.0726     3.7536    48.8222 </r>
       <r>    10.1361     3.4394    49.0406 </r>
       <r>    10.1996     3.5764    49.2677 </r>
       <r>    10.2631     3.5861    49.4954 </r>
       <r>    10.3266     2.7138    49.6678 </r>
       <r>    10.3901     1.7002    49.7757 </r>
       <r>    10.4536     1.1004    49.8456 </r>
       <r>    10.5171     0.7740    49.8948 </r>
       <r>    10.5806     0.5597    49.9303 </r>
       <r>    10.6441     0.3817    49.9545 </r>
       <r>    10.7076     0.2533    49.9706 </r>
       <r>    10.7711     0.1811    49.9821 </r>
       <r>    10.8346     0.1439    49.9913 </r>
       <r>    10.8981     0.0915    49.9971 </r>
       <r>    10.9616     0.0367    49.9994 </r>
       <r>    11.0251     0.0083    49.9999 </r>
       <r>    11.0886     0.0010    50.0000 </r>
       <r>    11.1521     0.0001    50.0000 </r>
       <r>    11.2156     0.0000    50.0000 </r>
       <r>    11.2791     0.0000    50.0000 </r>
       <r>    11.3426     0.0000    50.0000 </r>
       <r>    11.4061     0.0000    50.0000 </r>
       <r>    11.4696     0.0000    50.0000 </r>
       <r>    11.5331     0.0000    50.0000 </r>
       <r>    11.5966     0.0000    50.0000 </r>
       <r>    11.6601     0.0000    50.0000 </r>
       <r>    11.7236     0.0000    50.0000 </r>
       <r>    11.7871     0.0000    50.0000 </r>
       <r>    11.8506     0.0000    50.0000 </r>
      </set>
     </set>
    </array>
   </total>
  </dos>
 </calculation>
 <structure name="finalpos" >
  <crystal>
   <varray name="basis" >
    <v>       5.46927209      -0.00000000       0.00000000 </v>
    <v>      -0.00000000       5.46927209       0.00000000 </v>
    <v>       0.00000000       0.00000000       5.46927209 </v>
   </varray>
   <i name="volume">    163.60199273 </i>
   <varray name="rec_basis" >
    <v>       0.18283969       0.00000000      -0.00000000 </v>
    <v>       0.00000000       0.18283969      -0.00000000 </v>
    <v>      -0.00000000      -0.00000000       0.18283969 </v>
   </varray>
  </crystal>
  <varray name="positions" >
   <v>      -0.00000000      -0.00000000       0.00000000 </v>
   <v>       0.00000000       0.50000000       0.50000000 </v>
   <v>       0.50000000      -0.00000000       0.50000000 </v>
   <v>       0.50000000       0.50000000       0.00000000 </v>
   <v>       0.25000000       0.25000000       0.25000000 </v>
   <v>       0.75000000       0.75000000       0.25000000 </v>
   <v>       0.75000000       0.25000000       0.75000000 </v>
   <v>       0.25000000       0.75000000       0.75000000 </v>
  </varray>
 </structure>
</modeling>
