diamond Si                              
           1
     5.558764   -0.000000    0.000000
    -0.000000    5.558764    0.000000
     0.000000    0.000000    5.558764
   Si
   8
Direct configuration=     1
   0.00000000  0.00000000  0.00000000
   0.00000000  0.50000000  0.50000000
   0.50000000  0.00000000  0.50000000
   0.50000000  0.50000000  0.00000000
   0.25000000  0.25000000  0.25000000
   0.75000000  0.75000000  0.25000000
   0.75000000  0.25000000  0.75000000
   0.25000000  0.75000000  0.75000000
diamond Si                              
           1
     5.469272   -0.000000    0.000000
    -0.000000    5.469272    0.000000
     0.000000    0.000000    5.469272
   Si
   8
Direct configuration=     2
  -0.00000000 -0.00000000  0.00000000
   0.00000000  0.50000000  0.50000000
   0.50000000 -0.00000000  0.50000000
   0.50000000  0.50000000  0.00000000
   0.25000000  0.25000000  0.25000000
   0.75000000  0.75000000  0.25000000
   0.75000000  0.25000000  0.75000000
   0.25000000  0.75000000  0.75000000
diamond Si                              
           1
     5.469272   -0.000000    0.000000
    -0.000000    5.469272    0.000000
     0.000000    0.000000    5.469272
   Si
   8
Direct configuration=     3
  -0.00000000 -0.00000000  0.00000000
   0.00000000  0.50000000  0.50000000
   0.50000000 -0.00000000  0.50000000
   0.50000000  0.50000000  0.00000000
   0.25000000  0.25000000  0.25000000
   0.75000000  0.75000000  0.25000000
   0.75000000  0.25000000  0.75000000
   0.25000000  0.75000000  0.75000000
