diamond Si                              
   5.43100000000000     
     1.020972    0.000000   -0.000000
    -0.000000    1.020972    0.000000
    -0.000000    0.000000    1.020972
   Si
     8
Direct
  0.000000  0.000000  0.000000
  0.000000  0.500000  0.500000
  0.500000  0.000000  0.500000
  0.500000  0.500000  0.000000
  0.250000  0.250000  0.250000
  0.750000  0.750000  0.250000
  0.750000  0.250000  0.750000
  0.250000  0.750000  0.750000
 
   56   56   56
 -30.686     -26.112     -13.422      4.6003      24.230      41.816      54.646      61.442      62.393      58.825    
  52.656      45.728      38.909      32.569      26.926      22.075      18.017      14.695      12.020      9.8900    
  8.2086      6.8894      5.8612      5.0685      4.4687      4.0308      3.7327      3.5594      3.5026      3.5594    
  3.7327      4.0308      4.4687      5.0685      5.8612      6.8894      8.2086      9.8900      12.020      14.695    
  18.017      22.075      26.926      32.569      38.909      45.728      52.656      58.825      62.393      61.442    
  54.646      41.816      24.230      4.6003     -13.422     -26.112     -26.112     -21.697     -9.4545      7.9058    
  26.765      43.582      55.735      62.006      62.605      58.848      52.619      45.698      38.898      32.581    
  26.958      22.123      18.076      14.760      12.087      9.9582      8.2757      6.9546      5.9245      5.1298    
  4.5284      4.0893      3.7902      3.6164      3.5594      3.6164      3.7902      4.0893      4.5284      5.1298    
  5.9245      6.9546      8.2757      9.9582      12.087      14.760      18.076      22.123      26.958      32.581    
  38.898      45.698      52.619      58.848      62.605      62.006      55.735      43.582      26.765      7.9058    
 -9.4545     -21.697     -13.422     -9.4545      1.5223      17.017      33.710      48.369      58.634      63.451    
  63.091      58.837      52.471      45.586      38.851      32.605      27.048      22.262      18.250      14.955    
  12.291      10.164      8.4786      7.1526      6.1167      5.3165      4.7104      4.2674      3.9656      3.7902    
  3.7327      3.7902      3.9656      4.2674      4.7104      5.3165      6.1167      7.1526      8.4786      10.164    
  12.291      14.955      18.250      22.262      27.048      32.605      38.851      45.586      52.471      58.837    
  63.091      63.451      58.634      48.369      33.710      17.017      1.5223     -9.4545      4.6003      7.9058    
  17.017      29.769      43.290      54.815      62.366      65.132      63.465      58.587      52.119      45.330    
  38.728      32.617      27.176      22.482      18.532      15.276      12.632      10.510      8.8228      7.4899    
  6.4455      5.6367      5.0229      4.5737      4.2674      4.0893      4.0308      4.0893      4.2674      4.5737    
  5.0229      5.6367      6.4455      7.4899      8.8228      10.510      12.632      15.276      18.532      22.482    
  27.176      32.617      38.728      45.330      52.119      58.587      63.465      65.132      62.366      54.815    
  43.290      29.769      17.017      7.9058      24.230      26.765      33.710      43.290      53.173      61.145    
  65.679      66.239      63.259      57.868      51.448      44.854      38.475      32.578      27.319      22.765    
  18.913      15.719      13.110      11.003      9.3168      7.9779      6.9238      6.1043      5.4804      5.0229    
  4.7104      4.5284      4.4687      4.5284      4.7104      5.0229      5.4804      6.1043      6.9238      7.9779    
  9.3168      11.003      13.110      15.719      18.913      22.765      27.319      32.578      38.475      44.854    
  51.448      57.868      63.259      66.239      65.679      61.145      53.173      43.290      33.710      26.765    
  41.816      43.582      48.369      54.815      61.145      65.714      67.452      66.089      62.114      56.533    
  50.360      44.088      38.043      32.451      27.447      23.090      19.380      16.280      13.727      11.649    
  9.9730      8.6325      7.5701      6.7395      6.1043      5.6367      5.3165      5.1298      5.0685      5.1298    
  5.3165      5.6367      6.1043      6.7395      7.5701      8.6325      9.9730      11.649      13.727      16.280    
  19.380      23.090      27.447      32.451      38.043      44.088      50.360      56.533      62.114      66.089    
  67.452      65.714      61.145      54.815      48.369      43.582      54.646      55.735      58.634      62.366    
  65.679      67.452      67.025      64.345      59.919      54.555      48.801      42.992      37.396      32.206    
  27.535      23.438      19.921      16.953      14.486      12.459      10.808      9.4750      8.4096      7.5701    
  6.9238      6.4455      6.1167      5.9245      5.8612      5.9245      6.1167      6.4455      6.9238      7.5701    
  8.4096      9.4750      10.808      12.459      14.486      16.953      19.921      23.438      27.535      32.206    
  37.396      42.992      48.801      54.555      59.919      64.345      67.025      67.452      65.679      62.366    
  58.634      55.735      61.442      62.006      63.451      65.132      66.239      66.089      64.345      61.107    
  56.833      51.959      46.779      41.562      36.525      31.827      27.567      23.796      20.526      17.738    
  15.395      13.447      11.843      10.533      9.4750      8.6325      7.9779      7.4899      7.1526      6.9546    
  6.8894      6.9546      7.1526      7.4899      7.9779      8.6325      9.4750      10.533      11.843      13.447    
  15.395      17.738      20.526      23.796      27.567      31.827      36.525      41.562      46.779      51.959    
  56.833      61.107      64.345      66.089      66.239      65.132      63.451      62.006      62.393      62.605    
  63.091      63.465      63.259      62.114      59.919      56.833      53.073      48.840      44.357      39.833    
  35.442      31.314      27.535      24.156      21.192      18.637      16.463      14.634      13.107      11.843    
  10.808      9.9730      9.3168      8.8228      8.4786      8.2757      8.2086      8.2757      8.4786      8.8228    
  9.3168      9.9730      10.808      11.843      13.107      14.634      16.463      18.637      21.192      24.156    
  27.535      31.314      35.442      39.833      44.357      48.840      53.073      56.833      59.919      62.114    
  63.259      63.465      63.091      62.605      58.825      58.848      58.837      58.587      57.868      56.533    
  54.555      51.959      48.840      45.343      41.633      37.867      34.182      30.683      27.447      24.520    
  21.925      19.660      17.709      16.044      14.634      13.447      12.459      11.649      11.003      10.510    
  10.164      9.9582      9.8900      9.9582      10.164      10.510      11.003      11.649      12.459      13.447    
  14.634      16.044      17.709      19.660      21.925      24.520      27.447      30.683      34.182      37.867    
  41.633      45.343      48.840      51.959      54.555      56.533      57.868      58.587      58.837      58.848    
  52.656      52.619      52.471      52.119      51.448      50.360      48.801      46.779      44.357      41.633    
  38.722      35.741      32.793      29.964      27.319      24.902      22.735      20.823      19.155      17.709    
  16.463      15.395      14.486      13.727      13.110      12.632      12.291      12.087      12.020      12.087    
  12.291      12.632      13.110      13.727      14.486      15.395      16.463      17.709      19.155      20.823    
  22.735      24.902      27.319      29.964      32.793      35.741      38.722      41.633      44.357      46.779    
  48.801      50.360      51.448      52.119      52.471      52.619      45.728      45.698      45.586      45.330    
  44.854      44.088      42.992      41.562      39.833      37.867      35.741      33.536      31.331      29.193    
  27.176      25.319      23.640      22.144      20.823      19.660      18.637      17.738      16.953      16.280    
  15.719      15.276      14.955      14.760      14.695      14.760      14.955      15.276      15.719      16.280    
  16.953      17.738      18.637      19.660      20.823      22.144      23.640      25.319      27.176      29.193    
  31.331      33.536      35.741      37.867      39.833      41.562      42.992      44.088      44.854      45.330    
  45.586      45.698      38.909      38.898      38.851      38.728      38.475      38.043      37.396      36.525    
  35.442      34.182      32.793      31.331      29.853      28.412      27.048      25.791      24.655      23.640    
  22.735      21.925      21.192      20.526      19.921      19.380      18.913      18.532      18.250      18.076    
  18.017      18.076      18.250      18.532      18.913      19.380      19.921      20.526      21.192      21.925    
  22.735      23.640      24.655      25.791      27.048      28.412      29.853      31.331      32.793      34.182    
  35.442      36.525      37.396      38.043      38.475      38.728      38.851      38.898      32.569      32.581    
  32.605      32.617      32.578      32.451      32.206      31.827      31.314      30.683      29.964      29.193    
  28.412      27.657      26.958      26.335      25.791      25.319      24.902      24.520      24.156      23.796    
  23.438      23.090      22.765      22.482      22.262      22.123      22.075      22.123      22.262      22.482    
  22.765      23.090      23.438      23.796      24.156      24.520      24.902      25.319      25.791      26.335    
  26.958      27.657      28.412      29.193      29.964      30.683      31.314      31.827      32.206      32.451    
  32.578      32.617      32.605      32.581      26.926      26.958      27.048      27.176      27.319      27.447    
  27.535      27.567      27.535      27.447      27.319      27.176      27.048      26.958      26.926      26.958    
  27.048      27.176      27.319      27.447      27.535      27.567      27.535      27.447      27.319      27.176    
  27.048      26.958      26.926      26.958      27.048      27.176      27.319      27.447      27.535      27.567    
  27.535      27.447      27.319      27.176      27.048      26.958      26.926      26.958      27.048      27.176    
  27.319      27.447      27.535      27.567      27.535      27.447      27.319      27.176      27.048      26.958    
  22.075      22.123      22.262      22.482      22.765      23.090      23.438      23.796      24.156      24.520    
  24.902      25.319      25.791      26.335      26.958      27.657      28.412      29.193      29.964      30.683    
  31.314      31.827      32.206      32.451      32.578      32.617      32.605      32.581      32.569      32.581    
  32.605      32.617      32.578      32.451      32.206      31.827      31.314      30.683      29.964      29.193    
  28.412      27.657      26.958      26.335      25.791      25.319      24.902      24.520      24.156      23.796    
  23.438      23.090      22.765      22.482      22.262      22.123      18.017      18.076      18.250      18.532    
  18.913      19.380      19.921      20.526      21.192      21.925      22.735      23.640      24.655      25.791    
  27.048      28.412      29.853      31.331      32.793      34.182      35.442      36.525      37.396      38.043    
  38.475      38.728      38.851      38.898      38.909      38.898      38.851      38.728      38.475      38.043    
  37.396      36.525      35.442      34.182      32.793      31.331      29.853      28.412      27.048      25.791    
  24.655      23.640      22.735      21.925      21.192      20.526      19.921      19.380      18.913      18.532    
  18.250      18.076      14.695      14.760      14.955      15.276      15.719      16.280      16.953      17.738    
  18.637      19.660      20.823      22.144      23.640      25.319      27.176      29.193      31.331      33.536    
  35.741      37.867      39.833      41.562      42.992      44.088      44.854      45.330      45.586      45.698    
  45.728      45.698      45.586      45.330      44.854      44.088      42.992      41.562      39.833      37.867    
  35.741      33.536      31.331      29.193      27.176      25.319      23.640      22.144      20.823      19.660    
  18.637      17.738      16.953      16.280      15.719      15.276      14.955      14.760      12.020      12.087    
  12.291      12.632      13.110      13.727      14.486      15.395      16.463      17.709      19.155      20.823    
  22.735      24.902      27.319      29.964      32.793      35.741      38.722      41.633      44.357      46.779    
  48.801      50.360      51.448      52.119      52.471      52.619      52.656      52.619      52.471      52.119    
  51.448      50.360      48.801      46.779      44.357      41.633      38.722      35.741      32.793      29.964    
  27.319      24.902      22.735      20.823      19.155      17.709      16.463      15.395      14.486      13.727    
  13.110      12.632      12.291      12.087      9.8900      9.9582      10.164      10.510      11.003      11.649    
  12.459      13.447      14.634      16.044      17.709      19.660      21.925      24.520      27.447      30.683    
  34.182      37.867      41.633      45.343      48.840      51.959      54.555      56.533      57.868      58.587    
  58.837      58.848      58.825      58.848      58.837      58.587      57.868      56.533      54.555      51.959    
  48.840      45.343      41.633      37.867      34.182      30.683      27.447      24.520      21.925      19.660    
  17.709      16.044      14.634      13.447      12.459      11.649      11.003      10.510      10.164      9.9582    
  8.2086      8.2757      8.4786      8.8228      9.3168      9.9730      10.808      11.843      13.107      14.634    
  16.463      18.637      21.192      24.156      27.535      31.314      35.442      39.833      44.357      48.840    
  53.073      56.833      59.919      62.114      63.259      63.465      63.091      62.605      62.393      62.605    
  63.091      63.465      63.259      62.114      59.919      56.833      53.073      48.840      44.357      39.833    
  35.442      31.314      27.535      24.156      21.192      18.637      16.463      14.634      13.107      11.843    
  10.808      9.9730      9.3168      8.8228      8.4786      8.2757      6.8894      6.9546      7.1526      7.4899    
  7.9779      8.6325      9.4750      10.533      11.843      13.447      15.395      17.738      20.526      23.796    
  27.567      31.827      36.525      41.562      46.779      51.959      56.833      61.107      64.345      66.089    
  66.239      65.132      63.451      62.006      61.442      62.006      63.451      65.132      66.239      66.089    
  64.345      61.107      56.833      51.959      46.779      41.562      36.525      31.827      27.567      23.796    
  20.526      17.738      15.395      13.447      11.843      10.533      9.4750      8.6325      7.9779      7.4899    
  7.1526      6.9546      5.8612      5.9245      6.1167      6.4455      6.9238      7.5701      8.4096      9.4750    
  10.808      12.459      14.486      16.953      19.921      23.438      27.535      32.206      37.396      42.992    
  48.801      54.555      59.919      64.345      67.025      67.452      65.679      62.366      58.634      55.735    
  54.646      55.735      58.634      62.366      65.679      67.452      67.025      64.345      59.919      54.555    
  48.801      42.992      37.396      32.206      27.535      23.438      19.921      16.953      14.486      12.459    
  10.808      9.4750      8.4096      7.5701      6.9238      6.4455      6.1167      5.9245      5.0685      5.1298    
  5.3165      5.6367      6.1043      6.7395      7.5701      8.6325      9.9730      11.649      13.727      16.280    
  19.380      23.090      27.447      32.451      38.043      44.088      50.360      56.533      62.114      66.089    
  67.452      65.714      61.145      54.815      48.369      43.582      41.816      43.582      48.369      54.815    
  61.145      65.714      67.452      66.089      62.114      56.533      50.360      44.088      38.043      32.451    
  27.447      23.090      19.380      16.280      13.727      11.649      9.9730      8.6325      7.5701      6.7395    
  6.1043      5.6367      5.3165      5.1298      4.4687      4.5284      4.7104      5.0229      5.4804      6.1043    
  6.9238      7.9779      9.3168      11.003      13.110      15.719      18.913      22.765      27.319      32.578    
  38.475      44.854      51.448      57.868      63.259      66.239      65.679      61.145      53.173      43.290    
  33.710      26.765      24.230      26.765      33.710      43.290      53.173      61.145      65.679      66.239    
  63.259      57.868      51.448      44.854      38.475      32.578      27.319      22.765      18.913      15.719    
  13.110      11.003      9.3168      7.9779      6.9238      6.1043      5.4804      5.0229      4.7104      4.5284    
  4.0308      4.0893      4.2674      4.5737      5.0229      5.6367      6.4455      7.4899      8.8228      10.510    
  12.632      15.276      18.532      22.482      27.176      32.617      38.728      45.330      52.119      58.587    
  63.465      65.132      62.366      54.815      43.290      29.769      17.017      7.9058      4.6003      7.9058    
  17.017      29.769      43.290      54.815      62.366      65.132      63.465      58.587      52.119      45.330    
  38.728      32.617      27.176      22.482      18.532      15.276      12.632      10.510      8.8228      7.4899    
  6.4455      5.6367      5.0229      4.5737      4.2674      4.0893      3.7327      3.7902      3.9656      4.2674    
  4.7104      5.3165      6.1167      7.1526      8.4786      10.164      12.291      14.955      18.250      22.262    
  27.048      32.605      38.851      45.586      52.471      58.837      63.091      63.451      58.634      48.369    
  33.710      17.017      1.5223     -9.4545     -13.422     -9.4545      1.5223      17.017      33.710      48.369    
  58.634      63.451      63.091      58.837      52.471      45.586      38.851      32.605      27.048      22.262    
  18.250      14.955      12.291      10.164      8.4786      7.1526      6.1167      5.3165      4.7104      4.2674    
  3.9656      3.7902      3.5594      3.6164      3.7902      4.0893      4.5284      5.1298      5.9245      6.9546    
  8.2757      9.9582      12.087      14.760      18.076      22.123      26.958      32.581      38.898      45.698    
  52.619      58.848      62.605      62.006      55.735      43.582      26.765      7.9058     -9.4545     -21.697    
 -26.112     -21.697     -9.4545      7.9058      26.765      43.582      55.735      62.006      62.605      58.848    
  52.619      45.698      38.898      32.581      26.958      22.123      18.076      14.760      12.087      9.9582    
  8.2757      6.9546      5.9245      5.1298      4.5284      4.0893      3.7902      3.6164      3.5026      3.5594    
  3.7327      4.0308      4.4687      5.0685      5.8612      6.8894      8.2086      9.8900      12.020      14.695    
  18.017      22.075      26.926      32.569      38.909      45.728      52.656      58.825      62.393      61.442    
  54.646      41.816      24.230      4.6003     -13.422     -26.112     -30.686     -26.112     -13.422      4.6003    
  24.230      41.816      54.646      61.442      62.393      58.825      52.656      45.728      38.909      32.569    
  26.926      22.075      18.017      14.695      12.020      9.8900      8.2086      6.8894      5.8612      5.0685    
  4.4687      4.0308      3.7327      3.5594      3.5594      3.6164      3.7902      4.0893      4.5284      5.1298    
  5.9245      6.9546      8.2757      9.9582      12.087      14.760      18.076      22.123      26.958      32.581    
  38.898      45.698      52.619      58.848      62.605      62.006      55.735      43.582      26.765      7.9058    
 -9.4545     -21.697     -26.112     -21.697     -9.4545      7.9058      26.765      43.582      55.735      62.006    
  62.605      58.848      52.619      45.698      38.898      32.581      26.958      22.123      18.076      14.760    
  12.087      9.9582      8.2757      6.9546      5.9245      5.1298      4.5284      4.0893      3.7902      3.6164    
  3.7327      3.7902      3.9656      4.2674      4.7104      5.3165      6.1167      7.1526      8.4786      10.164    
  12.291      14.955      18.250      22.262      27.048      32.605      38.851      45.586      52.471      58.837    
  63.091      63.451      58.634      48.369      33.710      17.017      1.5223     -9.4545     -13.422     -9.4545    
  1.5223      17.017      33.710      48.369      58.634      63.451      63.091      58.837      52.471      45.586    
  38.851      32.605      27.048      22.262      18.250      14.955      12.291      10.164      8.4786      7.1526    
  6.1167      5.3165      4.7104      4.2674      3.9656      3.7902      4.0308      4.0893      4.2674      4.5737    
  5.0229      5.6367      6.4455      7.4899      8.8228      10.510      12.632      15.276      18.532      22.482    
  27.176      32.617      38.728      45.330      52.119      58.587      63.465      65.132      62.366      54.815    
  43.290      29.769      17.017      7.9058      4.6003      7.9058      17.017      29.769      43.290      54.815    
  62.366      65.132      63.465      58.587      52.119      45.330      38.728      32.617      27.176      22.482    
  18.532      15.276      12.632      10.510      8.8228      7.4899      6.4455      5.6367      5.0229      4.5737    
  4.2674      4.0893      4.4687      4.5284      4.7104      5.0229      5.4804      6.1043      6.9238      7.9779    
  9.3168      11.003      13.110      15.719      18.913      22.765      27.319      32.578      38.475      44.854    
  51.448      57.868      63.259      66.239      65.679      61.145      53.173      43.290      33.710      26.765    
  24.230      26.765      33.710      43.290      53.173      61.145      65.679      66.239      63.259      57.868    
  51.448      44.854      38.475      32.578      27.319      22.765      18.913      15.719      13.110      11.003    
  9.3168      7.9779      6.9238      6.1043      5.4804      5.0229      4.7104      4.5284      5.0685      5.1298    
  5.3165      5.6367      6.1043      6.7395      7.5701      8.6325      9.9730      11.649      13.727      16.280    
  19.380      23.090      27.447      32.451      38.043      44.088      50.360      56.533      62.114      66.089    
  67.452      65.714      61.145      54.815      48.369      43.582      41.816      43.582      48.369      54.815    
  61.145      65.714      67.452      66.089      62.114      56.533      50.360      44.088      38.043      32.451    
  27.447      23.090      19.380      16.280      13.727      11.649      9.9730      8.6325      7.5701      6.7395    
  6.1043      5.6367      5.3165      5.1298      5.8612      5.9245      6.1167      6.4455      6.9238      7.5701    
  8.4096      9.4750      10.808      12.459      14.486      16.953      19.921      23.438      27.535      32.206    
  37.396      42.992      48.801      54.555      59.919      64.345      67.025      67.452      65.679      62.366    
  58.634      55.735      54.646      55.735      58.634      62.366      65.679      67.452      67.025      64.345    
  59.919      54.555      48.801      42.992      37.396      32.206      27.535      23.438      19.921      16.953    
  14.486      12.459      10.808      9.4750      8.4096      7.5701      6.9238      6.4455      6.1167      5.9245    
  6.8894      6.9546      7.1526      7.4899      7.9779      8.6325      9.4750      10.533      11.843      13.447    
  15.395      17.738      20.526      23.796      27.567      31.827      36.525      41.562      46.779      51.959    
  56.833      61.107      64.345      66.089      66.239      65.132      63.451      62.006      61.442      62.006    
  63.451      65.132      66.239      66.089      64.345      61.107      56.833      51.959      46.779      41.562    
  36.525      31.827      27.567      23.796      20.526      17.738      15.395      13.447      11.843      10.533    
  9.4750      8.6325      7.9779      7.4899      7.1526      6.9546      8.2086      8.2757      8.4786      8.8228    
  9.3168      9.9730      10.808      11.843      13.107      14.634      16.463      18.637      21.192      24.156    
  27.535      31.314      35.442      39.833      44.357      48.840      53.073      56.833      59.919      62.114    
  63.259      63.465      63.091      62.605      62.393      62.605      63.091      63.465      63.259      62.114    
  59.919      56.833      53.073      48.840      44.357      39.833      35.442      31.314      27.535      24.156    
  21.192      18.637      16.463      14.634      13.107      11.843      10.808      9.9730      9.3168      8.8228    
  8.4786      8.2757      9.8900      9.9582      10.164      10.510      11.003      11.649      12.459      13.447    
  14.634      16.044      17.709      19.660      21.925      24.520      27.447      30.683      34.182      37.867    
  41.633      45.343      48.840      51.959      54.555      56.533      57.868      58.587      58.837      58.848    
  58.825      58.848      58.837      58.587      57.868      56.533      54.555      51.959      48.840      45.343    
  41.633      37.867      34.182      30.683      27.447      24.520      21.925      19.660      17.709      16.044    
  14.634      13.447      12.459      11.649      11.003      10.510      10.164      9.9582      12.020      12.087    
  12.291      12.632      13.110      13.727      14.486      15.395      16.463      17.709      19.155      20.823    
  22.735      24.902      27.319      29.964      32.793      35.741      38.722      41.633      44.357      46.779    
  48.801      50.360      51.448      52.119      52.471      52.619      52.656      52.619      52.471      52.119    
  51.448      50.360      48.801      46.779      44.357      41.633      38.722      35.741      32.793      29.964    
  27.319      24.902      22.735      20.823      19.155      17.709      16.463      15.395      14.486      13.727    
  13.110      12.632      12.291      12.087      14.695      14.760      14.955      15.276      15.719      16.280    
  16.953      17.738      18.637      19.660      20.823      22.144      23.640      25.319      27.176      29.193    
  31.331      33.536      35.741      37.867      39.833      41.562      42.992      44.088      44.854      45.330    
  45.586      45.698      45.728      45.698      45.586      45.330      44.854      44.088      42.992      41.562    
  39.833      37.867      35.741      33.536      31.331      29.193      27.176      25.319      23.640      22.144    
  20.823      19.660      18.637      17.738      16.953      16.280      15.719      15.276      14.955      14.760    
  18.017      18.076      18.250      18.532      18.913      19.380      19.921      20.526      21.192      21.925    
  22.735      23.640      24.655      25.791      27.048      28.412      29.853      31.331      32.793      34.182    
  35.442      36.525      37.396      38.043      38.475      38.728      38.851      38.898      38.909      38.898    
  38.851      38.728      38.475      38.043      37.396      36.525      35.442      34.182      32.793      31.331    
  29.853      28.412      27.048      25.791      24.655      23.640      22.735      21.925      21.192      20.526    
  19.921      19.380      18.913      18.532      18.250      18.076      22.075      22.123      22.262      22.482    
  22.765      23.090      23.438      23.796      24.156      24.520      24.902      25.319      25.791      26.335    
  26.958      27.657      28.412      29.193      29.964      30.683      31.314      31.827      32.206      32.451    
  32.578      32.617      32.605      32.581      32.569      32.581      32.605      32.617      32.578      32.451    
  32.206      31.827      31.314      30.683      29.964      29.193      28.412      27.657      26.958      26.335    
  25.791      25.319      24.902      24.520      24.156      23.796      23.438      23.090      22.765      22.482    
  22.262      22.123      26.926      26.958      27.048      27.176      27.319      27.447      27.535      27.567    
  27.535      27.447      27.319      27.176      27.048      26.958      26.926      26.958      27.048      27.176    
  27.319      27.447      27.535      27.567      27.535      27.447      27.319      27.176      27.048      26.958    
  26.926      26.958      27.048      27.176      27.319      27.447      27.535      27.567      27.535      27.447    
  27.319      27.176      27.048      26.958      26.926      26.958      27.048      27.176      27.319      27.447    
  27.535      27.567      27.535      27.447      27.319      27.176      27.048      26.958      32.569      32.581    
  32.605      32.617      32.578      32.451      32.206      31.827      31.314      30.683      29.964      29.193    
  28.412      27.657      26.958      26.335      25.791      25.319      24.902      24.520      24.156      23.796    
  23.438      23.090      22.765      22.482      22.262      22.123      22.075      22.123      22.262      22.482    