diamond Si                              
   5.43100000000000     
     1.006343    0.000000   -0.000000
    -0.000000    1.006343    0.000000
    -0.000000    0.000000    1.006343
   Si
     8
Direct
 -0.000000 -0.000000 -0.000000
  0.000000  0.500000  0.500000
  0.500000 -0.000000  0.500000
  0.500000  0.500000 -0.000000
  0.250000  0.250000  0.250000
  0.750000  0.750000  0.250000
  0.750000  0.250000  0.750000
  0.250000  0.750000  0.750000
 
   56   56   56
 -.31067969910E+02 -.26373922735E+02 -.13363255512E+02 0.50758861820E+01 0.25089640384E+02
 0.42915012688E+02 0.55784033098E+02 0.62426111063E+02 0.63096804075E+02 0.59217359980E+02
 0.52795030311E+02 0.45698247990E+02 0.38762998372E+02 0.32354460680E+02 0.26681233191E+02
 0.21825641164E+02 0.17779407287E+02 0.14477217140E+02 0.11824257308E+02 0.97166427439E+01
 0.80551199027E+01 0.67529360434E+01 0.57390000832E+01 0.49577301826E+01 0.43671035387E+01
 0.39361900256E+01 0.36429590044E+01 0.34726659264E+01 0.34168256218E+01 0.34726659264E+01
 0.36429590044E+01 0.39361900256E+01 0.43671035387E+01 0.49577301826E+01 0.57390000832E+01
 0.67529360434E+01 0.80551199027E+01 0.97166427439E+01 0.11824257308E+02 0.14477217140E+02
 0.17779407287E+02 0.21825641164E+02 0.26681233191E+02 0.32354460680E+02 0.38762998372E+02
 0.45698247990E+02 0.52795030311E+02 0.59217359980E+02 0.63096804075E+02 0.62426111063E+02
 0.55784033098E+02 0.42915012688E+02 0.25089640384E+02 0.50758861820E+01 -.13363255512E+02
 -.26373922735E+02 -.26373922735E+02 -.21845215427E+02 -.93012622725E+01 0.84499153397E+01
 0.27664870993E+02 0.44695206655E+02 0.56868192784E+02 0.62974051212E+02 0.63290114730E+02
 0.59224799886E+02 0.52748152803E+02 0.45661879767E+02 0.38748161807E+02 0.32363627778E+02
 0.26711877017E+02 0.21872859646E+02 0.17837797506E+02 0.14541996366E+02 0.11891759097E+02
 0.97843858156E+01 0.81216441096E+01 0.68175496316E+01 0.58015255763E+01 0.50182943415E+01
 0.44259891965E+01 0.39937476570E+01 0.36995630124E+01 0.35286971546E+01 0.34726659264E+01
 0.35286971546E+01 0.36995630124E+01 0.39937476570E+01 0.44259891965E+01 0.50182943415E+01
 0.58015255763E+01 0.68175496316E+01 0.81216441096E+01 0.97843858156E+01 0.11891759097E+02
 0.14541996366E+02 0.17837797506E+02 0.21872859646E+02 0.26711877017E+02 0.32363627778E+02
 0.38748161807E+02 0.45661879767E+02 0.52748152803E+02 0.59224799886E+02 0.63290114730E+02
 0.62974051212E+02 0.56868192784E+02 0.44695206655E+02 0.27664870993E+02 0.84499153397E+01
 -.93012622725E+01 -.21845215427E+02 -.13363255512E+02 -.93012622725E+01 0.19260964687E+01
 0.17739103300E+02 0.34708552744E+02 0.49511500092E+02 0.59744678900E+02 0.64368919942E+02
 0.63720451647E+02 0.59167864141E+02 0.52572211115E+02 0.45530613088E+02 0.38689266672E+02
 0.32381693469E+02 0.26797620023E+02 0.22010598152E+02 0.18010766170E+02 0.14735498230E+02
 0.12094531331E+02 0.99887507379E+01 0.83230021787E+01 0.70136259664E+01 0.59916190128E+01
 0.52026573684E+01 0.46053866947E+01 0.41691859110E+01 0.38721464620E+01 0.36995630124E+01
 0.36429590044E+01 0.36995630124E+01 0.38721464620E+01 0.41691859110E+01 0.46053866947E+01
 0.52026573684E+01 0.59916190128E+01 0.70136259664E+01 0.83230021787E+01 0.99887507379E+01
 0.12094531331E+02 0.14735498230E+02 0.18010766170E+02 0.22010598152E+02 0.26797620023E+02
 0.32381693469E+02 0.38689266672E+02 0.45530613088E+02 0.52572211115E+02 0.59167864141E+02
 0.63720451647E+02 0.64368919942E+02 0.59744678900E+02 0.49511500092E+02 0.34708552744E+02
 0.17739103300E+02 0.19260964687E+01 -.93012622725E+01 0.50758861820E+01 0.84499153397E+01
 0.17739103300E+02 0.30706902377E+02 0.44395312194E+02 0.55967315687E+02 0.63418805773E+02
 0.65958797716E+02 0.64002194088E+02 0.58847471491E+02 0.52177520829E+02 0.45245969582E+02
 0.38547803206E+02 0.32382910388E+02 0.26921205542E+02 0.22227694080E+02 0.18291901110E+02
 0.15055210761E+02 0.12433287873E+02 0.10333043653E+02 0.86644741937E+01 0.73478411606E+01
 0.63168547816E+01 0.55189069325E+01 0.49136364528E+01 0.44709483423E+01 0.41691859110E+01
 0.39937476570E+01 0.39361900256E+01 0.39937476570E+01 0.41691859110E+01 0.44709483423E+01
 0.49136364528E+01 0.55189069325E+01 0.63168547816E+01 0.73478411606E+01 0.86644741937E+01
 0.10333043653E+02 0.12433287873E+02 0.15055210761E+02 0.18291901110E+02 0.22227694080E+02
 0.26921205542E+02 0.32382910388E+02 0.38547803206E+02 0.45245969582E+02 0.52177520829E+02
 0.58847471491E+02 0.64002194088E+02 0.65958797716E+02 0.63418805773E+02 0.55967315687E+02
 0.44395312194E+02 0.30706902377E+02 0.17739103300E+02 0.84499153397E+01 0.25089640384E+02
 0.27664870993E+02 0.34708552744E+02 0.44395312194E+02 0.54329642420E+02 0.62250688615E+02
 0.66621568534E+02 0.66932930320E+02 0.63674978115E+02 0.58042346661E+02 0.51452602407E+02
 0.44733736363E+02 0.38273253478E+02 0.32332039159E+02 0.27057923514E+02 0.22507481686E+02
 0.18671275240E+02 0.15497095530E+02 0.12909097139E+02 0.10822589810E+02 0.91547338937E+01
 0.78313224905E+01 0.67900136631E+01 0.59808340450E+01 0.53650793768E+01 0.49136364528E+01
 0.46053866947E+01 0.44259891965E+01 0.43671035387E+01 0.44259891965E+01 0.46053866947E+01
 0.49136364528E+01 0.53650793768E+01 0.59808340450E+01 0.67900136631E+01 0.78313224905E+01
 0.91547338937E+01 0.10822589810E+02 0.12909097139E+02 0.15497095530E+02 0.18671275240E+02
 0.22507481686E+02 0.27057923514E+02 0.32332039159E+02 0.38273253478E+02 0.44733736363E+02
 0.51452602407E+02 0.58042346661E+02 0.63674978115E+02 0.66932930320E+02 0.66621568534E+02
 0.62250688615E+02 0.54329642420E+02 0.44395312194E+02 0.34708552744E+02 0.27664870993E+02
 0.42915012688E+02 0.44695206655E+02 0.49511500092E+02 0.55967315687E+02 0.62250688615E+02
 0.66692627972E+02 0.68226884097E+02 0.66613793298E+02 0.62392858974E+02 0.56619035010E+02
 0.50303519182E+02 0.43928667431E+02 0.37818117272E+02 0.32193223375E+02 0.27180682010E+02
 0.22830568794E+02 0.19136873857E+02 0.16056255455E+02 0.13523665151E+02 0.11464875559E+02
 0.98060082708E+01 0.84799236711E+01 0.74295243599E+01 0.66085521216E+01 0.59808340450E+01
 0.55189069325E+01 0.52026573684E+01 0.50182943415E+01 0.49577301826E+01 0.50182943415E+01
 0.52026573684E+01 0.55189069325E+01 0.59808340450E+01 0.66085521216E+01 0.74295243599E+01
 0.84799236711E+01 0.98060082708E+01 0.11464875559E+02 0.13523665151E+02 0.16056255455E+02
 0.19136873857E+02 0.22830568794E+02 0.27180682010E+02 0.32193223375E+02 0.37818117272E+02
 0.43928667431E+02 0.50303519182E+02 0.56619035010E+02 0.62392858974E+02 0.66613793298E+02
 0.68226884097E+02 0.66692627972E+02 0.62250688615E+02 0.55967315687E+02 0.49511500092E+02
 0.44695206655E+02 0.55784033098E+02 0.56868192784E+02 0.59744678900E+02 0.63418805773E+02
 0.66621568534E+02 0.68226884097E+02 0.67587492145E+02 0.64684204851E+02 0.60063284201E+02
 0.54553256693E+02 0.48683994491E+02 0.42794197730E+02 0.37150736448E+02 0.31938298849E+02
 0.27265393735E+02 0.23178328498E+02 0.19676847931E+02 0.16728385183E+02 0.14280294891E+02
 0.12270254268E+02 0.10634712299E+02 0.93149206620E+01 0.82603048562E+01 0.74295243599E+01
 0.67900136631E+01 0.63168547816E+01 0.59916190128E+01 0.58015255763E+01 0.57390000832E+01
 0.58015255763E+01 0.59916190128E+01 0.63168547816E+01 0.67900136631E+01 0.74295243599E+01
 0.82603048562E+01 0.93149206620E+01 0.10634712299E+02 0.12270254268E+02 0.14280294891E+02
 0.16728385183E+02 0.19676847931E+02 0.23178328498E+02 0.27265393735E+02 0.31938298849E+02
 0.37150736448E+02 0.42794197730E+02 0.48683994491E+02 0.54553256693E+02 0.60063284201E+02
 0.64684204851E+02 0.67587492145E+02 0.68226884097E+02 0.66621568534E+02 0.63418805773E+02
 0.59744678900E+02 0.56868192784E+02 0.62426111063E+02 0.62974051212E+02 0.64368919942E+02
 0.65958797716E+02 0.66932930320E+02 0.66613793298E+02 0.64684204851E+02 0.61273111832E+02
 0.56862130382E+02 0.51873947988E+02 0.46607168481E+02 0.41331527633E+02 0.36262453520E+02
 0.31552524331E+02 0.27295578598E+02 0.23536545281E+02 0.20282325799E+02 0.17511878936E+02
 0.15185452217E+02 0.13253156096E+02 0.11662489652E+02 0.10364048167E+02 0.93149206620E+01
 0.84799236711E+01 0.78313224905E+01 0.73478411606E+01 0.70136259664E+01 0.68175496316E+01
 0.67529360434E+01 0.68175496316E+01 0.70136259664E+01 0.73478411606E+01 0.78313224905E+01
 0.84799236711E+01 0.93149206620E+01 0.10364048167E+02 0.11662489652E+02 0.13253156096E+02
 0.15185452217E+02 0.17511878936E+02 0.20282325799E+02 0.23536545281E+02 0.27295578598E+02
 0.31552524331E+02 0.36262453520E+02 0.41331527633E+02 0.46607168481E+02 0.51873947988E+02
 0.56862130382E+02 0.61273111832E+02 0.64684204851E+02 0.66613793298E+02 0.66932930320E+02
 0.65958797716E+02 0.64368919942E+02 0.62974051212E+02 0.63096804075E+02 0.63290114730E+02
 0.63720451647E+02 0.64002194088E+02 0.63674978115E+02 0.62392858974E+02 0.60063284201E+02
 0.56862130382E+02 0.52999312420E+02 0.48682846901E+02 0.44139277767E+02 0.39577586941E+02
 0.35168361243E+02 0.31036929600E+02 0.27265393735E+02 0.23898472276E+02 0.20950100085E+02
 0.18409979826E+02 0.16250389411E+02 0.14433314084E+02 0.12917225656E+02 0.11662489652E+02
 0.10634712299E+02 0.98060082708E+01 0.91547338937E+01 0.86644741937E+01 0.83230021787E+01
 0.81216441096E+01 0.80551199027E+01 0.81216441096E+01 0.83230021787E+01 0.86644741937E+01
 0.91547338937E+01 0.98060082708E+01 0.10634712299E+02 0.11662489652E+02 0.12917225656E+02
 0.14433314084E+02 0.16250389411E+02 0.18409979826E+02 0.20950100085E+02 0.23898472276E+02
 0.27265393735E+02 0.31036929600E+02 0.35168361243E+02 0.39577586941E+02 0.44139277767E+02
 0.48682846901E+02 0.52999312420E+02 0.56862130382E+02 0.60063284201E+02 0.62392858974E+02
 0.63674978115E+02 0.64002194088E+02 0.63720451647E+02 0.63290114730E+02 0.59217359980E+02
 0.59224799886E+02 0.59167864141E+02 0.58847471491E+02 0.58042346661E+02 0.56619035010E+02
 0.54553256693E+02 0.51873947988E+02 0.48682846901E+02 0.45130065117E+02 0.41381928485E+02
 0.37595445624E+02 0.33903213227E+02 0.30407604260E+02 0.27180682010E+02 0.24266512045E+02
 0.21684256997E+02 0.19432031709E+02 0.17491949771E+02 0.15836212914E+02 0.14433314084E+02
 0.13253156096E+02 0.12270254268E+02 0.11464875559E+02 0.10822589810E+02 0.10333043653E+02
 0.99887507379E+01 0.97843858156E+01 0.97166427439E+01 0.97843858156E+01 0.99887507379E+01
 0.10333043653E+02 0.10822589810E+02 0.11464875559E+02 0.12270254268E+02 0.13253156096E+02
 0.14433314084E+02 0.15836212914E+02 0.17491949771E+02 0.19432031709E+02 0.21684256997E+02
 0.24266512045E+02 0.27180682010E+02 0.30407604260E+02 0.33903213227E+02 0.37595445624E+02
 0.41381928485E+02 0.45130065117E+02 0.48682846901E+02 0.51873947988E+02 0.54553256693E+02
 0.56619035010E+02 0.58042346661E+02 0.58847471491E+02 0.59167864141E+02 0.59224799886E+02
 0.52795030311E+02 0.52748152803E+02 0.52572211115E+02 0.52177520829E+02 0.51452602407E+02
 0.50303519182E+02 0.48683994491E+02 0.46607168481E+02 0.44139277767E+02 0.41381928485E+02
 0.38451503472E+02 0.35462155413E+02 0.32515000301E+02 0.29692796751E+02 0.27057923514E+02
 0.24651889813E+02 0.22495905590E+02 0.20592949103E+02 0.18931699562E+02 0.17491949771E+02
 0.16250389411E+02 0.15185452217E+02 0.14280294891E+02 0.13523665151E+02 0.12909097139E+02
 0.12433287873E+02 0.12094531331E+02 0.11891759097E+02 0.11824257308E+02 0.11891759097E+02
 0.12094531331E+02 0.12433287873E+02 0.12909097139E+02 0.13523665151E+02 0.14280294891E+02
 0.15185452217E+02 0.16250389411E+02 0.17491949771E+02 0.18931699562E+02 0.20592949103E+02
 0.22495905590E+02 0.24651889813E+02 0.27057923514E+02 0.29692796751E+02 0.32515000301E+02
 0.35462155413E+02 0.38451503472E+02 0.41381928485E+02 0.44139277767E+02 0.46607168481E+02
 0.48683994491E+02 0.50303519182E+02 0.51452602407E+02 0.52177520829E+02 0.52572211115E+02
 0.52748152803E+02 0.45698247990E+02 0.45661879767E+02 0.45530613088E+02 0.45245969582E+02
 0.44733736363E+02 0.43928667431E+02 0.42794197730E+02 0.41331527633E+02 0.39577586941E+02
 0.37595445624E+02 0.35462155413E+02 0.33257922540E+02 0.31058235900E+02 0.28928644865E+02
 0.26921205542E+02 0.25072088109E+02 0.23400637164E+02 0.21910489801E+02 0.20592949103E+02
 0.19432031709E+02 0.18409979826E+02 0.17511878936E+02 0.16728385183E+02 0.16056255455E+02
 0.15497095530E+02 0.15055210761E+02 0.14735498230E+02 0.14541996366E+02 0.14477217140E+02
 0.14541996366E+02 0.14735498230E+02 0.15055210761E+02 0.15497095530E+02 0.16056255455E+02
 0.16728385183E+02 0.17511878936E+02 0.18409979826E+02 0.19432031709E+02 0.20592949103E+02
 0.21910489801E+02 0.23400637164E+02 0.25072088109E+02 0.26921205542E+02 0.28928644865E+02
 0.31058235900E+02 0.33257922540E+02 0.35462155413E+02 0.37595445624E+02 0.39577586941E+02
 0.41331527633E+02 0.42794197730E+02 0.43928667431E+02 0.44733736363E+02 0.45245969582E+02
 0.45530613088E+02 0.45661879767E+02 0.38762998372E+02 0.38748161807E+02 0.38689266672E+02
 0.38547803206E+02 0.38273253478E+02 0.37818117272E+02 0.37150736448E+02 0.36262453520E+02
 0.35168361243E+02 0.33903213227E+02 0.32515000301E+02 0.31058235900E+02 0.29587892796E+02
 0.28154103585E+02 0.26797620023E+02 0.25546405321E+02 0.24414057463E+02 0.23400637164E+02
 0.22495905590E+02 0.21684256997E+02 0.20950100085E+02 0.20282325799E+02 0.19676847931E+02
 0.19136873857E+02 0.18671275240E+02 0.18291901110E+02 0.18010766170E+02 0.17837797506E+02
 0.17779407287E+02 0.17837797506E+02 0.18010766170E+02 0.18291901110E+02 0.18671275240E+02
 0.19136873857E+02 0.19676847931E+02 0.20282325799E+02 0.20950100085E+02 0.21684256997E+02
 0.22495905590E+02 0.23400637164E+02 0.24414057463E+02 0.25546405321E+02 0.26797620023E+02
 0.28154103585E+02 0.29587892796E+02 0.31058235900E+02 0.32515000301E+02 0.33903213227E+02
 0.35168361243E+02 0.36262453520E+02 0.37150736448E+02 0.37818117272E+02 0.38273253478E+02
 0.38547803206E+02 0.38689266672E+02 0.38748161807E+02 0.32354460680E+02 0.32363627778E+02
 0.32381693469E+02 0.32382910388E+02 0.32332039159E+02 0.32193223375E+02 0.31938298849E+02
 0.31552524331E+02 0.31036929600E+02 0.30407604260E+02 0.29692796751E+02 0.28928644865E+02
 0.28154103585E+02 0.27405567866E+02 0.26711877017E+02 0.26090594280E+02 0.25546405321E+02
 0.25072088109E+02 0.24651889813E+02 0.24266512045E+02 0.23898472276E+02 0.23536545281E+02
 0.23178328498E+02 0.22830568794E+02 0.22507481686E+02 0.22227694080E+02 0.22010598152E+02
 0.21872859646E+02 0.21825641164E+02 0.21872859646E+02 0.22010598152E+02 0.22227694080E+02
 0.22507481686E+02 0.22830568794E+02 0.23178328498E+02 0.23536545281E+02 0.23898472276E+02
 0.24266512045E+02 0.24651889813E+02 0.25072088109E+02 0.25546405321E+02 0.26090594280E+02
 0.26711877017E+02 0.27405567866E+02 0.28154103585E+02 0.28928644865E+02 0.29692796751E+02
 0.30407604260E+02 0.31036929600E+02 0.31552524331E+02 0.31938298849E+02 0.32193223375E+02
 0.32332039159E+02 0.32382910388E+02 0.32381693469E+02 0.32363627778E+02 0.26681233191E+02
 0.26711877017E+02 0.26797620023E+02 0.26921205542E+02 0.27057923514E+02 0.27180682010E+02
 0.27265393735E+02 0.27295578598E+02 0.27265393735E+02 0.27180682010E+02 0.27057923514E+02
 0.26921205542E+02 0.26797620023E+02 0.26711877017E+02 0.26681233191E+02 0.26711877017E+02
 0.26797620023E+02 0.26921205542E+02 0.27057923514E+02 0.27180682010E+02 0.27265393735E+02
 0.27295578598E+02 0.27265393735E+02 0.27180682010E+02 0.27057923514E+02 0.26921205542E+02
 0.26797620023E+02 0.26711877017E+02 0.26681233191E+02 0.26711877017E+02 0.26797620023E+02
 0.26921205542E+02 0.27057923514E+02 0.27180682010E+02 0.27265393735E+02 0.27295578598E+02
 0.27265393735E+02 0.27180682010E+02 0.27057923514E+02 0.26921205542E+02 0.26797620023E+02
 0.26711877017E+02 0.26681233191E+02 0.26711877017E+02 0.26797620023E+02 0.26921205542E+02
 0.27057923514E+02 0.27180682010E+02 0.27265393735E+02 0.27295578598E+02 0.27265393735E+02
 0.27180682010E+02 0.27057923514E+02 0.26921205542E+02 0.26797620023E+02 0.26711877017E+02
 0.21825641164E+02 0.21872859646E+02 0.22010598152E+02 0.22227694080E+02 0.22507481686E+02
 0.22830568794E+02 0.23178328498E+02 0.23536545281E+02 0.23898472276E+02 0.24266512045E+02
 0.24651889813E+02 0.25072088109E+02 0.25546405321E+02 0.26090594280E+02 0.26711877017E+02
 0.27405567866E+02 0.28154103585E+02 0.28928644865E+02 0.29692796751E+02 0.30407604260E+02
 0.31036929600E+02 0.31552524331E+02 0.31938298849E+02 0.32193223375E+02 0.32332039159E+02
 0.32382910388E+02 0.32381693469E+02 0.32363627778E+02 0.32354460680E+02 0.32363627778E+02
 0.32381693469E+02 0.32382910388E+02 0.32332039159E+02 0.32193223375E+02 0.31938298849E+02
 0.31552524331E+02 0.31036929600E+02 0.30407604260E+02 0.29692796751E+02 0.28928644865E+02
 0.28154103585E+02 0.27405567866E+02 0.26711877017E+02 0.26090594280E+02 0.25546405321E+02
 0.25072088109E+02 0.24651889813E+02 0.24266512045E+02 0.23898472276E+02 0.23536545281E+02
 0.23178328498E+02 0.22830568794E+02 0.22507481686E+02 0.22227694080E+02 0.22010598152E+02
 0.21872859646E+02 0.17779407287E+02 0.17837797506E+02 0.18010766170E+02 0.18291901110E+02
 0.18671275240E+02 0.19136873857E+02 0.19676847931E+02 0.20282325799E+02 0.20950100085E+02
 0.21684256997E+02 0.22495905590E+02 0.23400637164E+02 0.24414057463E+02 0.25546405321E+02
 0.26797620023E+02 0.28154103585E+02 0.29587892796E+02 0.31058235900E+02 0.32515000301E+02
 0.33903213227E+02 0.35168361243E+02 0.36262453520E+02 0.37150736448E+02 0.37818117272E+02
 0.38273253478E+02 0.38547803206E+02 0.38689266672E+02 0.38748161807E+02 0.38762998372E+02
 0.38748161807E+02 0.38689266672E+02 0.38547803206E+02 0.38273253478E+02 0.37818117272E+02
 0.37150736448E+02 0.36262453520E+02 0.35168361243E+02 0.33903213227E+02 0.32515000301E+02
 0.31058235900E+02 0.29587892796E+02 0.28154103585E+02 0.26797620023E+02 0.25546405321E+02
 0.24414057463E+02 0.23400637164E+02 0.22495905590E+02 0.21684256997E+02 0.20950100085E+02
 0.20282325799E+02 0.19676847931E+02 0.19136873857E+02 0.18671275240E+02 0.18291901110E+02
 0.18010766170E+02 0.17837797506E+02 0.14477217140E+02 0.14541996366E+02 0.14735498230E+02
 0.15055210761E+02 0.15497095530E+02 0.16056255455E+02 0.16728385183E+02 0.17511878936E+02
 0.18409979826E+02 0.19432031709E+02 0.20592949103E+02 0.21910489801E+02 0.23400637164E+02
 0.25072088109E+02 0.26921205542E+02 0.28928644865E+02 0.31058235900E+02 0.33257922540E+02
 0.35462155413E+02 0.37595445624E+02 0.39577586941E+02 0.41331527633E+02 0.42794197730E+02
 0.43928667431E+02 0.44733736363E+02 0.45245969582E+02 0.45530613088E+02 0.45661879767E+02
 0.45698247990E+02 0.45661879767E+02 0.45530613088E+02 0.45245969582E+02 0.44733736363E+02
 0.43928667431E+02 0.42794197730E+02 0.41331527633E+02 0.39577586941E+02 0.37595445624E+02
 0.35462155413E+02 0.33257922540E+02 0.31058235900E+02 0.28928644865E+02 0.26921205542E+02
 0.25072088109E+02 0.23400637164E+02 0.21910489801E+02 0.20592949103E+02 0.19432031709E+02
 0.18409979826E+02 0.17511878936E+02 0.16728385183E+02 0.16056255455E+02 0.15497095530E+02
 0.15055210761E+02 0.14735498230E+02 0.14541996366E+02 0.11824257308E+02 0.11891759097E+02
 0.12094531331E+02 0.12433287873E+02 0.12909097139E+02 0.13523665151E+02 0.14280294891E+02
 0.15185452217E+02 0.16250389411E+02 0.17491949771E+02 0.18931699562E+02 0.20592949103E+02
 0.22495905590E+02 0.24651889813E+02 0.27057923514E+02 0.29692796751E+02 0.32515000301E+02
 0.35462155413E+02 0.38451503472E+02 0.41381928485E+02 0.44139277767E+02 0.46607168481E+02
 0.48683994491E+02 0.50303519182E+02 0.51452602407E+02 0.52177520829E+02 0.52572211115E+02
 0.52748152803E+02 0.52795030311E+02 0.52748152803E+02 0.52572211115E+02 0.52177520829E+02
 0.51452602407E+02 0.50303519182E+02 0.48683994491E+02 0.46607168481E+02 0.44139277767E+02
 0.41381928485E+02 0.38451503472E+02 0.35462155413E+02 0.32515000301E+02 0.29692796751E+02
 0.27057923514E+02 0.24651889813E+02 0.22495905590E+02 0.20592949103E+02 0.18931699562E+02
 0.17491949771E+02 0.16250389411E+02 0.15185452217E+02 0.14280294891E+02 0.13523665151E+02
 0.12909097139E+02 0.12433287873E+02 0.12094531331E+02 0.11891759097E+02 0.97166427439E+01
 0.97843858156E+01 0.99887507379E+01 0.10333043653E+02 0.10822589810E+02 0.11464875559E+02
 0.12270254268E+02 0.13253156096E+02 0.14433314084E+02 0.15836212914E+02 0.17491949771E+02
 0.19432031709E+02 0.21684256997E+02 0.24266512045E+02 0.27180682010E+02 0.30407604260E+02
 0.33903213227E+02 0.37595445624E+02 0.41381928485E+02 0.45130065117E+02 0.48682846901E+02
 0.51873947988E+02 0.54553256693E+02 0.56619035010E+02 0.58042346661E+02 0.58847471491E+02
 0.59167864141E+02 0.59224799886E+02 0.59217359980E+02 0.59224799886E+02 0.59167864141E+02
 0.58847471491E+02 0.58042346661E+02 0.56619035010E+02 0.54553256693E+02 0.51873947988E+02
 0.48682846901E+02 0.45130065117E+02 0.41381928485E+02 0.37595445624E+02 0.33903213227E+02
 0.30407604260E+02 0.27180682010E+02 0.24266512045E+02 0.21684256997E+02 0.19432031709E+02
 0.17491949771E+02 0.15836212914E+02 0.14433314084E+02 0.13253156096E+02 0.12270254268E+02
 0.11464875559E+02 0.10822589810E+02 0.10333043653E+02 0.99887507379E+01 0.97843858156E+01
 0.80551199027E+01 0.81216441096E+01 0.83230021787E+01 0.86644741937E+01 0.91547338937E+01
 0.98060082708E+01 0.10634712299E+02 0.11662489652E+02 0.12917225656E+02 0.14433314084E+02
 0.16250389411E+02 0.18409979826E+02 0.20950100085E+02 0.23898472276E+02 0.27265393735E+02
 0.31036929600E+02 0.35168361243E+02 0.39577586941E+02 0.44139277767E+02 0.48682846901E+02
 0.52999312420E+02 0.56862130382E+02 0.60063284201E+02 0.62392858974E+02 0.63674978115E+02
 0.64002194088E+02 0.63720451647E+02 0.63290114730E+02 0.63096804075E+02 0.63290114730E+02
 0.63720451647E+02 0.64002194088E+02 0.63674978115E+02 0.62392858974E+02 0.60063284201E+02
 0.56862130382E+02 0.52999312420E+02 0.48682846901E+02 0.44139277767E+02 0.39577586941E+02
 0.35168361243E+02 0.31036929600E+02 0.27265393735E+02 0.23898472276E+02 0.20950100085E+02
 0.18409979826E+02 0.16250389411E+02 0.14433314084E+02 0.12917225656E+02 0.11662489652E+02
 0.10634712299E+02 0.98060082708E+01 0.91547338937E+01 0.86644741937E+01 0.83230021787E+01
 0.81216441096E+01 0.67529360434E+01 0.68175496316E+01 0.70136259664E+01 0.73478411606E+01
 0.78313224905E+01 0.84799236711E+01 0.93149206620E+01 0.10364048167E+02 0.11662489652E+02
 0.13253156096E+02 0.15185452217E+02 0.17511878936E+02 0.20282325799E+02 0.23536545281E+02
 0.27295578598E+02 0.31552524331E+02 0.36262453520E+02 0.41331527633E+02 0.46607168481E+02
 0.51873947988E+02 0.56862130382E+02 0.61273111832E+02 0.64684204851E+02 0.66613793298E+02
 0.66932930320E+02 0.65958797716E+02 0.64368919942E+02 0.62974051212E+02 0.62426111063E+02
 0.62974051212E+02 0.64368919942E+02 0.65958797716E+02 0.66932930320E+02 0.66613793298E+02
 0.64684204851E+02 0.61273111832E+02 0.56862130382E+02 0.51873947988E+02 0.46607168481E+02
 0.41331527633E+02 0.36262453520E+02 0.31552524331E+02 0.27295578598E+02 0.23536545281E+02
 0.20282325799E+02 0.17511878936E+02 0.15185452217E+02 0.13253156096E+02 0.11662489652E+02
 0.10364048167E+02 0.93149206620E+01 0.84799236711E+01 0.78313224905E+01 0.73478411606E+01
 0.70136259664E+01 0.68175496316E+01 0.57390000832E+01 0.58015255763E+01 0.59916190128E+01
 0.63168547816E+01 0.67900136631E+01 0.74295243599E+01 0.82603048562E+01 0.93149206620E+01
 0.10634712299E+02 0.12270254268E+02 0.14280294891E+02 0.16728385183E+02 0.19676847931E+02
 0.23178328498E+02 0.27265393735E+02 0.31938298849E+02 0.37150736448E+02 0.42794197730E+02
 0.48683994491E+02 0.54553256693E+02 0.60063284201E+02 0.64684204851E+02 0.67587492145E+02
 0.68226884097E+02 0.66621568534E+02 0.63418805773E+02 0.59744678900E+02 0.56868192784E+02
 0.55784033098E+02 0.56868192784E+02 0.59744678900E+02 0.63418805773E+02 0.66621568534E+02
 0.68226884097E+02 0.67587492145E+02 0.64684204851E+02 0.60063284201E+02 0.54553256693E+02
 0.48683994491E+02 0.42794197730E+02 0.37150736448E+02 0.31938298849E+02 0.27265393735E+02
 0.23178328498E+02 0.19676847931E+02 0.16728385183E+02 0.14280294891E+02 0.12270254268E+02
 0.10634712299E+02 0.93149206620E+01 0.82603048562E+01 0.74295243599E+01 0.67900136631E+01
 0.63168547816E+01 0.59916190128E+01 0.58015255763E+01 0.49577301826E+01 0.50182943415E+01
 0.52026573684E+01 0.55189069325E+01 0.59808340450E+01 0.66085521216E+01 0.74295243599E+01
 0.84799236711E+01 0.98060082708E+01 0.11464875559E+02 0.13523665151E+02 0.16056255455E+02
 0.19136873857E+02 0.22830568794E+02 0.27180682010E+02 0.32193223375E+02 0.37818117272E+02
 0.43928667431E+02 0.50303519182E+02 0.56619035010E+02 0.62392858974E+02 0.66613793298E+02
 0.68226884097E+02 0.66692627972E+02 0.62250688615E+02 0.55967315687E+02 0.49511500092E+02
 0.44695206655E+02 0.42915012688E+02 0.44695206655E+02 0.49511500092E+02 0.55967315687E+02
 0.62250688615E+02 0.66692627972E+02 0.68226884097E+02 0.66613793298E+02 0.62392858974E+02
 0.56619035010E+02 0.50303519182E+02 0.43928667431E+02 0.37818117272E+02 0.32193223375E+02
 0.27180682010E+02 0.22830568794E+02 0.19136873857E+02 0.16056255455E+02 0.13523665151E+02
 0.11464875559E+02 0.98060082708E+01 0.84799236711E+01 0.74295243599E+01 0.66085521216E+01
 0.59808340450E+01 0.55189069325E+01 0.52026573684E+01 0.50182943415E+01 0.43671035387E+01
 0.44259891965E+01 0.46053866947E+01 0.49136364528E+01 0.53650793768E+01 0.59808340450E+01
 0.67900136631E+01 0.78313224905E+01 0.91547338937E+01 0.10822589810E+02 0.12909097139E+02
 0.15497095530E+02 0.18671275240E+02 0.22507481686E+02 0.27057923514E+02 0.32332039159E+02
 0.38273253478E+02 0.44733736363E+02 0.51452602407E+02 0.58042346661E+02 0.63674978115E+02
 0.66932930320E+02 0.66621568534E+02 0.62250688615E+02 0.54329642420E+02 0.44395312194E+02
 0.34708552744E+02 0.27664870993E+02 0.25089640384E+02 0.27664870993E+02 0.34708552744E+02
 0.44395312194E+02 0.54329642420E+02 0.62250688615E+02 0.66621568534E+02 0.66932930320E+02
 0.63674978115E+02 0.58042346661E+02 0.51452602407E+02 0.44733736363E+02 0.38273253478E+02
 0.32332039159E+02 0.27057923514E+02 0.22507481686E+02 0.18671275240E+02 0.15497095530E+02
 0.12909097139E+02 0.10822589810E+02 0.91547338937E+01 0.78313224905E+01 0.67900136631E+01
 0.59808340450E+01 0.53650793768E+01 0.49136364528E+01 0.46053866947E+01 0.44259891965E+01
 0.39361900256E+01 0.39937476570E+01 0.41691859110E+01 0.44709483423E+01 0.49136364528E+01
 0.55189069325E+01 0.63168547816E+01 0.73478411606E+01 0.86644741937E+01 0.10333043653E+02
 0.12433287873E+02 0.15055210761E+02 0.18291901110E+02 0.22227694080E+02 0.26921205542E+02
 0.32382910388E+02 0.38547803206E+02 0.45245969582E+02 0.52177520829E+02 0.58847471491E+02
 0.64002194088E+02 0.65958797716E+02 0.63418805773E+02 0.55967315687E+02 0.44395312194E+02
 0.30706902377E+02 0.17739103300E+02 0.84499153397E+01 0.50758861820E+01 0.84499153397E+01
 0.17739103300E+02 0.30706902377E+02 0.44395312194E+02 0.55967315687E+02 0.63418805773E+02
 0.65958797716E+02 0.64002194088E+02 0.58847471491E+02 0.52177520829E+02 0.45245969582E+02
 0.38547803206E+02 0.32382910388E+02 0.26921205542E+02 0.22227694080E+02 0.18291901110E+02
 0.15055210761E+02 0.12433287873E+02 0.10333043653E+02 0.86644741937E+01 0.73478411606E+01
 0.63168547816E+01 0.55189069325E+01 0.49136364528E+01 0.44709483423E+01 0.41691859110E+01
 0.39937476570E+01 0.36429590044E+01 0.36995630124E+01 0.38721464620E+01 0.41691859110E+01
 0.46053866947E+01 0.52026573684E+01 0.59916190128E+01 0.70136259664E+01 0.83230021787E+01
 0.99887507379E+01 0.12094531331E+02 0.14735498230E+02 0.18010766170E+02 0.22010598152E+02
 0.26797620023E+02 0.32381693469E+02 0.38689266672E+02 0.45530613088E+02 0.52572211115E+02
 0.59167864141E+02 0.63720451647E+02 0.64368919942E+02 0.59744678900E+02 0.49511500092E+02
 0.34708552744E+02 0.17739103300E+02 0.19260964687E+01 -.93012622725E+01 -.13363255512E+02
 -.93012622725E+01 0.19260964687E+01 0.17739103300E+02 0.34708552744E+02 0.49511500092E+02
 0.59744678900E+02 0.64368919942E+02 0.63720451647E+02 0.59167864141E+02 0.52572211115E+02
 0.45530613088E+02 0.38689266672E+02 0.32381693469E+02 0.26797620023E+02 0.22010598152E+02
 0.18010766170E+02 0.14735498230E+02 0.12094531331E+02 0.99887507379E+01 0.83230021787E+01
 0.70136259664E+01 0.59916190128E+01 0.52026573684E+01 0.46053866947E+01 0.41691859110E+01
 0.38721464620E+01 0.36995630124E+01 0.34726659264E+01 0.35286971546E+01 0.36995630124E+01
 0.39937476570E+01 0.44259891965E+01 0.50182943415E+01 0.58015255763E+01 0.68175496316E+01
 0.81216441096E+01 0.97843858156E+01 0.11891759097E+02 0.14541996366E+02 0.17837797506E+02
 0.21872859646E+02 0.26711877017E+02 0.32363627778E+02 0.38748161807E+02 0.45661879767E+02
 0.52748152803E+02 0.59224799886E+02 0.63290114730E+02 0.62974051212E+02 0.56868192784E+02
 0.44695206655E+02 0.27664870993E+02 0.84499153397E+01 -.93012622725E+01 -.21845215427E+02
 -.26373922735E+02 -.21845215427E+02 -.93012622725E+01 0.84499153397E+01 0.27664870993E+02
 0.44695206655E+02 0.56868192784E+02 0.62974051212E+02 0.63290114730E+02 0.59224799886E+02
 0.52748152803E+02 0.45661879767E+02 0.38748161807E+02 0.32363627778E+02 0.26711877017E+02
 0.21872859646E+02 0.17837797506E+02 0.14541996366E+02 0.11891759097E+02 0.97843858156E+01
 0.81216441096E+01 0.68175496316E+01 0.58015255763E+01 0.50182943415E+01 0.44259891965E+01
 0.39937476570E+01 0.36995630124E+01 0.35286971546E+01 0.34168256218E+01 0.34726659264E+01
 0.36429590044E+01 0.39361900256E+01 0.43671035387E+01 0.49577301826E+01 0.57390000832E+01
 0.67529360434E+01 0.80551199027E+01 0.97166427439E+01 0.11824257308E+02 0.14477217140E+02
 0.17779407287E+02 0.21825641164E+02 0.26681233191E+02 0.32354460680E+02 0.38762998372E+02
 0.45698247990E+02 0.52795030311E+02 0.59217359980E+02 0.63096804075E+02 0.62426111063E+02
 0.55784033098E+02 0.42915012688E+02 0.25089640384E+02 0.50758861820E+01 -.13363255512E+02
 -.26373922735E+02 -.31067969910E+02 -.26373922735E+02 -.13363255512E+02 0.50758861820E+01
 0.25089640384E+02 0.42915012688E+02 0.55784033098E+02 0.62426111063E+02 0.63096804075E+02
 0.59217359980E+02 0.52795030311E+02 0.45698247990E+02 0.38762998372E+02 0.32354460680E+02
 0.26681233191E+02 0.21825641164E+02 0.17779407287E+02 0.14477217140E+02 0.11824257308E+02
 0.97166427439E+01 0.80551199027E+01 0.67529360434E+01 0.57390000832E+01 0.49577301826E+01