   8   8   0   0
  0.2002393E+02  0.5431000E-09  0.5431000E-09  0.5431000E-09  0.1000000E-14
  1.000000000000000E-004
  CAR 
 diamond Si                              
     11.91475953     -7.19326043  301      5.95218100      1.00000000
     -7.193  0.0000E+00  0.0000E+00
     -7.130  0.0000E+00  0.0000E+00
     -7.066  0.0000E+00  0.0000E+00
     -7.002  0.0000E+00  0.0000E+00
     -6.938  0.0000E+00  0.0000E+00
     -6.875  0.0000E+00  0.0000E+00
     -6.811  0.0000E+00  0.0000E+00
     -6.747  0.1116E-16  0.7107E-18
     -6.684  0.9853E-14  0.6283E-15
     -6.620  0.3953E-11  0.2524E-12
     -6.556  0.7307E-09  0.4679E-10
     -6.493  0.6343E-07  0.4087E-08
     -6.429  0.2665E-05  0.1738E-06
     -6.365  0.5653E-04  0.3775E-05
     -6.302  0.6366E-03  0.4432E-04
     -6.238  0.3998E-02  0.2990E-03
     -6.174  0.1458E-01  0.1228E-02
     -6.110  0.3228E-01  0.3284E-02
     -6.047  0.4826E-01  0.6358E-02
     -5.983  0.6316E-01  0.1038E-01
     -5.919  0.8323E-01  0.1568E-01
     -5.856  0.9005E-01  0.2142E-01
     -5.792  0.8466E-01  0.2681E-01
     -5.728  0.1003E+00  0.3320E-01
     -5.665  0.1243E+00  0.4112E-01
     -5.601  0.1274E+00  0.4923E-01
     -5.537  0.1269E+00  0.5732E-01
     -5.474  0.1371E+00  0.6605E-01
     -5.410  0.1294E+00  0.7429E-01
     -5.346  0.1262E+00  0.8233E-01
     -5.282  0.1621E+00  0.9265E-01
     -5.219  0.1880E+00  0.1046E+00
     -5.155  0.1891E+00  0.1167E+00
     -5.091  0.1845E+00  0.1284E+00
     -5.028  0.1547E+00  0.1383E+00
     -4.964  0.1362E+00  0.1469E+00
     -4.900  0.1787E+00  0.1583E+00
     -4.837  0.2320E+00  0.1731E+00
     -4.773  0.2419E+00  0.1885E+00
     -4.709  0.2328E+00  0.2033E+00
     -4.646  0.2168E+00  0.2172E+00
     -4.582  0.2036E+00  0.2301E+00
     -4.518  0.2258E+00  0.2445E+00
     -4.454  0.2513E+00  0.2605E+00
     -4.391  0.2398E+00  0.2758E+00
     -4.327  0.2250E+00  0.2901E+00
     -4.263  0.2416E+00  0.3055E+00
     -4.200  0.2822E+00  0.3235E+00
     -4.136  0.3510E+00  0.3458E+00
     -4.072  0.3758E+00  0.3698E+00
     -4.009  0.3374E+00  0.3913E+00
     -3.945  0.3262E+00  0.4120E+00
     -3.881  0.3304E+00  0.4331E+00
     -3.818  0.3234E+00  0.4537E+00
     -3.754  0.3507E+00  0.4760E+00
     -3.690  0.4139E+00  0.5024E+00
     -3.626  0.4284E+00  0.5297E+00
     -3.563  0.3481E+00  0.5518E+00
     -3.499  0.3017E+00  0.5711E+00
     -3.435  0.3422E+00  0.5929E+00
     -3.372  0.4226E+00  0.6198E+00
     -3.308  0.4466E+00  0.6482E+00
     -3.244  0.3318E+00  0.6694E+00
     -3.181  0.2159E+00  0.6831E+00
     -3.117  0.1856E+00  0.6949E+00
     -3.053  0.1723E+00  0.7059E+00
     -2.989  0.1805E+00  0.7174E+00
     -2.926  0.2486E+00  0.7332E+00
     -2.862  0.3459E+00  0.7553E+00
     -2.798  0.3810E+00  0.7795E+00
     -2.735  0.3353E+00  0.8009E+00
     -2.671  0.2797E+00  0.8187E+00
     -2.607  0.2062E+00  0.8318E+00
     -2.544  0.1229E+00  0.8397E+00
     -2.480  0.8004E-01  0.8448E+00
     -2.416  0.7886E-01  0.8498E+00
     -2.353  0.8578E-01  0.8552E+00
     -2.289  0.8793E-01  0.8608E+00
     -2.225  0.9198E-01  0.8667E+00
     -2.161  0.9921E-01  0.8730E+00
     -2.098  0.1217E+00  0.8808E+00
     -2.034  0.1517E+00  0.8904E+00
     -1.970  0.1541E+00  0.9002E+00
     -1.907  0.1184E+00  0.9078E+00
     -1.843  0.7641E-01  0.9127E+00
     -1.779  0.5311E-01  0.9160E+00
     -1.716  0.5597E-01  0.9196E+00
     -1.652  0.6435E-01  0.9237E+00
     -1.588  0.6154E-01  0.9276E+00
     -1.525  0.6263E-01  0.9316E+00
     -1.461  0.8480E-01  0.9370E+00
     -1.397  0.1650E+00  0.9475E+00
     -1.333  0.3327E+00  0.9687E+00
     -1.270  0.5219E+00  0.1002E+01
     -1.206  0.5772E+00  0.1039E+01
     -1.142  0.5439E+00  0.1073E+01
     -1.079  0.5388E+00  0.1108E+01
     -1.015  0.4941E+00  0.1139E+01
     -0.951  0.4622E+00  0.1169E+01
     -0.888  0.4909E+00  0.1200E+01
     -0.824  0.4298E+00  0.1227E+01
     -0.760  0.2978E+00  0.1246E+01
     -0.697  0.2545E+00  0.1262E+01
     -0.633  0.2924E+00  0.1281E+01
     -0.569  0.3873E+00  0.1306E+01
     -0.505  0.4546E+00  0.1335E+01
     -0.442  0.3678E+00  0.1358E+01
     -0.378  0.2399E+00  0.1373E+01
     -0.314  0.1749E+00  0.1385E+01
     -0.251  0.1447E+00  0.1394E+01
     -0.187  0.1975E+00  0.1406E+01
     -0.123  0.3112E+00  0.1426E+01
     -0.060  0.3150E+00  0.1446E+01
      0.004  0.1957E+00  0.1459E+01
      0.068  0.9828E-01  0.1465E+01
      0.131  0.8322E-01  0.1470E+01
      0.195  0.1192E+00  0.1478E+01
      0.259  0.1353E+00  0.1486E+01
      0.323  0.1664E+00  0.1497E+01
      0.386  0.2695E+00  0.1514E+01
      0.450  0.3048E+00  0.1534E+01
      0.514  0.2057E+00  0.1547E+01
      0.577  0.1151E+00  0.1554E+01
      0.641  0.9065E-01  0.1560E+01
      0.705  0.8028E-01  0.1565E+01
      0.768  0.6125E-01  0.1569E+01
      0.832  0.7104E-01  0.1573E+01
      0.896  0.1367E+00  0.1582E+01
      0.959  0.2040E+00  0.1595E+01
      1.023  0.1895E+00  0.1607E+01
      1.087  0.1145E+00  0.1614E+01
      1.151  0.6535E-01  0.1619E+01
      1.214  0.5822E-01  0.1622E+01
      1.278  0.9702E-01  0.1628E+01
      1.342  0.1543E+00  0.1638E+01
      1.405  0.1935E+00  0.1651E+01
      1.469  0.2685E+00  0.1668E+01
      1.533  0.4527E+00  0.1697E+01
      1.596  0.6407E+00  0.1737E+01
      1.660  0.6501E+00  0.1779E+01
      1.724  0.5342E+00  0.1813E+01
      1.788  0.3779E+00  0.1837E+01
      1.851  0.2798E+00  0.1855E+01
      1.915  0.3906E+00  0.1880E+01
      1.979  0.6136E+00  0.1919E+01
      2.042  0.6483E+00  0.1960E+01
      2.106  0.4657E+00  0.1990E+01
      2.170  0.3320E+00  0.2011E+01
      2.233  0.3747E+00  0.2035E+01
      2.297  0.5322E+00  0.2069E+01
      2.361  0.6240E+00  0.2108E+01
      2.424  0.5183E+00  0.2141E+01
      2.488  0.3795E+00  0.2165E+01
      2.552  0.4200E+00  0.2192E+01
      2.616  0.5728E+00  0.2229E+01
      2.679  0.6524E+00  0.2270E+01
      2.743  0.6019E+00  0.2309E+01
      2.807  0.5389E+00  0.2343E+01
      2.870  0.5892E+00  0.2380E+01
      2.934  0.6879E+00  0.2424E+01
      2.998  0.7298E+00  0.2471E+01
      3.061  0.7136E+00  0.2516E+01
      3.125  0.6619E+00  0.2558E+01
      3.189  0.6002E+00  0.2597E+01
      3.252  0.5986E+00  0.2635E+01
      3.316  0.6714E+00  0.2677E+01
      3.380  0.7280E+00  0.2724E+01
      3.444  0.6451E+00  0.2765E+01
      3.507  0.4849E+00  0.2796E+01
      3.571  0.4842E+00  0.2827E+01
      3.635  0.6518E+00  0.2868E+01
      3.698  0.7588E+00  0.2916E+01
      3.762  0.7032E+00  0.2961E+01
      3.826  0.5980E+00  0.2999E+01
      3.889  0.4697E+00  0.3029E+01
      3.953  0.3552E+00  0.3052E+01
      4.017  0.4168E+00  0.3078E+01
      4.080  0.5965E+00  0.3116E+01
      4.144  0.7091E+00  0.3162E+01
      4.208  0.7012E+00  0.3206E+01
      4.272  0.5945E+00  0.3244E+01
      4.335  0.4597E+00  0.3273E+01
      4.399  0.3729E+00  0.3297E+01
      4.463  0.3459E+00  0.3319E+01
      4.526  0.3722E+00  0.3343E+01
      4.590  0.4420E+00  0.3371E+01
      4.654  0.4652E+00  0.3401E+01
      4.717  0.3872E+00  0.3425E+01
      4.781  0.2738E+00  0.3443E+01
      4.845  0.1817E+00  0.3454E+01
      4.908  0.1494E+00  0.3464E+01
      4.972  0.2006E+00  0.3477E+01
      5.036  0.2423E+00  0.3492E+01
      5.100  0.1932E+00  0.3504E+01
      5.163  0.1236E+00  0.3512E+01
      5.227  0.1124E+00  0.3519E+01
      5.291  0.1352E+00  0.3528E+01
      5.354  0.1347E+00  0.3537E+01
      5.418  0.1099E+00  0.3544E+01
      5.482  0.7723E-01  0.3549E+01
      5.545  0.4439E-01  0.3551E+01
      5.609  0.3013E-01  0.3553E+01
      5.673  0.2259E-01  0.3555E+01
      5.736  0.1055E-01  0.3555E+01
      5.800  0.2570E-02  0.3556E+01
      5.864  0.3193E-03  0.3556E+01
      5.928  0.1997E-04  0.3556E+01
      5.991  0.2193E-05  0.3556E+01
      6.055  0.4872E-04  0.3556E+01
      6.119  0.6918E-03  0.3556E+01
      6.182  0.4582E-02  0.3556E+01
      6.246  0.1457E-01  0.3557E+01
      6.310  0.2461E-01  0.3558E+01
      6.373  0.3055E-01  0.3560E+01
      6.437  0.4606E-01  0.3563E+01
      6.501  0.8875E-01  0.3569E+01
      6.565  0.1505E+00  0.3579E+01
      6.628  0.1886E+00  0.3591E+01
      6.692  0.1873E+00  0.3602E+01
      6.756  0.1635E+00  0.3613E+01
      6.819  0.1686E+00  0.3624E+01
      6.883  0.2281E+00  0.3638E+01
      6.947  0.2701E+00  0.3655E+01
      7.010  0.2470E+00  0.3671E+01
      7.074  0.2126E+00  0.3685E+01
      7.138  0.1909E+00  0.3697E+01
      7.201  0.1986E+00  0.3709E+01
      7.265  0.3287E+00  0.3730E+01
      7.329  0.5123E+00  0.3763E+01
      7.393  0.5516E+00  0.3798E+01
      7.456  0.4843E+00  0.3829E+01
      7.520  0.3927E+00  0.3854E+01
      7.584  0.3181E+00  0.3874E+01
      7.647  0.3990E+00  0.3900E+01
      7.711  0.5962E+00  0.3938E+01
      7.775  0.7268E+00  0.3984E+01
      7.838  0.7340E+00  0.4031E+01
      7.902  0.6888E+00  0.4075E+01
      7.966  0.6846E+00  0.4118E+01
      8.029  0.6791E+00  0.4161E+01
      8.093  0.5996E+00  0.4200E+01
      8.157  0.5520E+00  0.4235E+01
      8.221  0.5759E+00  0.4271E+01
      8.284  0.6318E+00  0.4312E+01
      8.348  0.6958E+00  0.4356E+01
      8.412  0.6664E+00  0.4398E+01
      8.475  0.5903E+00  0.4436E+01
      8.539  0.5499E+00  0.4471E+01
      8.603  0.4666E+00  0.4501E+01
      8.666  0.3828E+00  0.4525E+01
      8.730  0.4181E+00  0.4552E+01
      8.794  0.5436E+00  0.4586E+01
      8.857  0.6742E+00  0.4629E+01
      8.921  0.8041E+00  0.4681E+01
      8.985  0.8944E+00  0.4738E+01
      9.049  0.8639E+00  0.4793E+01
      9.112  0.8075E+00  0.4844E+01
      9.176  0.7701E+00  0.4893E+01
      9.240  0.6998E+00  0.4938E+01
      9.303  0.6821E+00  0.4981E+01
      9.367  0.7648E+00  0.5030E+01
      9.431  0.8120E+00  0.5081E+01
      9.494  0.7418E+00  0.5129E+01
      9.558  0.6354E+00  0.5169E+01
      9.622  0.5711E+00  0.5206E+01
      9.685  0.5230E+00  0.5239E+01
      9.749  0.4602E+00  0.5268E+01
      9.813  0.4527E+00  0.5297E+01
      9.877  0.4689E+00  0.5327E+01
      9.940  0.4115E+00  0.5353E+01
     10.004  0.3578E+00  0.5376E+01
     10.068  0.3398E+00  0.5398E+01
     10.131  0.3169E+00  0.5418E+01
     10.195  0.2989E+00  0.5437E+01
     10.259  0.3034E+00  0.5456E+01
     10.322  0.3325E+00  0.5477E+01
     10.386  0.3486E+00  0.5499E+01
     10.450  0.2976E+00  0.5518E+01
     10.514  0.2038E+00  0.5531E+01
     10.577  0.1323E+00  0.5540E+01
     10.641  0.9001E-01  0.5546E+01
     10.705  0.5049E-01  0.5549E+01
     10.768  0.1957E-01  0.5550E+01
     10.832  0.1450E-01  0.5551E+01
     10.896  0.2571E-01  0.5553E+01
     10.959  0.2763E-01  0.5554E+01
     11.023  0.1459E-01  0.5555E+01
     11.087  0.3714E-02  0.5556E+01
     11.150  0.4504E-03  0.5556E+01
     11.214  0.2568E-04  0.5556E+01
     11.278  0.6808E-06  0.5556E+01
     11.342  0.8305E-08  0.5556E+01
     11.405  0.4627E-10  0.5556E+01
     11.469  0.1170E-12  0.5556E+01
     11.533  0.1339E-15  0.5556E+01
     11.596  0.0000E+00  0.5556E+01
     11.660  0.0000E+00  0.5556E+01
     11.724  0.0000E+00  0.5556E+01
     11.787  0.0000E+00  0.5556E+01
     11.851  0.0000E+00  0.5556E+01
     11.915  0.0000E+00  0.5556E+01
