The current hostname is p0131.ten.osc.edu
The current working directory is /users/PAA0028/sjtuwjx1994
Switching to the working directory /users/PAA0028/sjtuwjx1994/repos/vasp_tutorials/lessons/lesson_02/kpoint_convergence/9
switching compiler chain
module load intel/19.0.5
module load intelmpi/2019.3
VASP_STD_BIN=/users/PAA0028/sjtuwjx1994/usr/local/vasp/vasp.5.4.1/bin/vasp_std
 running on   40 total cores
 distrk:  each k-point on   40 cores,    1 groups
 distr:  one band on    8 cores,    5 groups
 using from now: INCAR     
 vasp.5.4.1 05Feb16 (build Feb 24 2020 14:33:01) complex                        
  
 POSCAR found type information on POSCAR  Si
 POSCAR found :  1 types and       8 ions
 scaLAPACK will be used
 LDA part: xc-table for Pade appr. of Perdew
 POSCAR, INCAR and KPOINTS ok, starting setup
 FFT: planning ...
 WAVECAR not read
 entering main loop
       N       E                     dE             d eps       ncg     rms          rms(c)
DAV:   1     0.279620199459E+02    0.27962E+02   -0.78009E+03  1750   0.561E+02
DAV:   2    -0.413840807176E+02   -0.69346E+02   -0.66577E+02  2250   0.110E+02
DAV:   3    -0.439696263243E+02   -0.25855E+01   -0.25685E+01  2315   0.205E+01    0.112E+01
DAV:   4    -0.435012747750E+02    0.46835E+00   -0.44398E-01  2250   0.312E+00    0.664E+00
DAV:   5    -0.432729446478E+02    0.22833E+00   -0.49575E-01  2085   0.281E+00    0.381E-01
DAV:   6    -0.432775125107E+02   -0.45679E-02   -0.19786E-02  2265   0.624E-01    0.203E-01
DAV:   7    -0.432790917790E+02   -0.15793E-02   -0.29116E-03  2025   0.229E-01    0.121E-01
DAV:   8    -0.432791996001E+02   -0.10782E-03   -0.16091E-04  1820   0.631E-02    0.617E-02
DAV:   9    -0.432792531053E+02   -0.53505E-04   -0.71573E-05  1595   0.431E-02
   1 F= -.43279253E+02 E0= -.43279253E+02  d E =-.432793E+02
 curvature:   0.00 expect dE= 0.000E+00 dE for cont linesearch  0.000E+00
 trial: gam= 0.00000 g(F)=  0.102E-59 g(S)=  0.109E+00 ort = 0.000E+00 (trialstep = 0.100E+01)
 search vector abs. value=  0.109E+00
 bond charge predicted
       N       E                     dE             d eps       ncg     rms          rms(c)
DAV:   1    -0.432925357581E+02   -0.13336E-01   -0.26386E+00  2030   0.640E+00
DAV:   2    -0.432985109834E+02   -0.59752E-02   -0.59752E-02  2210   0.103E+00
DAV:   3    -0.432985570482E+02   -0.46065E-04   -0.46065E-04  2155   0.104E-01    0.184E+00
DAV:   4    -0.432405747413E+02    0.57982E-01   -0.27809E-02  1845   0.595E-01    0.911E-01
DAV:   5    -0.432120515769E+02    0.28523E-01   -0.42115E-02  2070   0.740E-01    0.305E-01
DAV:   6    -0.432118374166E+02    0.21416E-03   -0.20628E-03  2055   0.202E-01    0.133E-01
DAV:   7    -0.432117762579E+02    0.61159E-04   -0.22343E-04  1885   0.540E-02
   2 F= -.43211776E+02 E0= -.43211776E+02  d E =0.674768E-01
 trial-energy change:    0.067477  1 .order    0.063821   -0.109405    0.237046
 step:   0.3024(harm=  0.3158)  dis= 0.00000  next Energy=   -43.295696 (dE=-0.164E-01)
 bond charge predicted
       N       E                     dE             d eps       ncg     rms          rms(c)
DAV:   1    -0.433343701817E+02   -0.12253E+00   -0.13246E+00  2015   0.464E+00
DAV:   2    -0.433380196721E+02   -0.36495E-02   -0.36495E-02  2190   0.762E-01
DAV:   3    -0.433380404544E+02   -0.20782E-04   -0.20782E-04  2050   0.731E-02    0.131E+00
DAV:   4    -0.433092903032E+02    0.28750E-01   -0.13695E-02  1790   0.425E-01    0.636E-01
DAV:   5    -0.432953906216E+02    0.13900E-01   -0.20332E-02  1975   0.521E-01    0.231E-01
DAV:   6    -0.432953779327E+02    0.12689E-04   -0.10103E-03  2085   0.145E-01    0.103E-01
DAV:   7    -0.432953129945E+02    0.64938E-04   -0.87816E-05  1150   0.353E-02
   3 F= -.43295313E+02 E0= -.43295313E+02  d E =-.160599E-01
 curvature:  -0.16 expect dE=-0.251E-05 dE for cont linesearch -0.251E-05
 trial: gam= 0.00000 g(F)=  0.368E-59 g(S)=  0.159E-04 ort =-0.132E-02 (trialstep = 0.860E+00)
 search vector abs. value=  0.159E-04
 reached required accuracy - stopping structural energy minimisation
 writing wavefunctions

-----------------------
Resources requested:
nodes=1:ppn=40
mem=190440mb
-----------------------
Resources used:
cput=00:06:17
walltime=00:00:11
mem=0.002GB
vmem=0.000GB
-----------------------
Resource units charged (estimate):
0.012 RUs
-----------------------
