       N       E                     dE             d eps       ncg     rms          rms(c)
DAV:   1     0.279620199459E+02    0.27962E+02   -0.78009E+03  1750   0.561E+02
DAV:   2    -0.413840807176E+02   -0.69346E+02   -0.66577E+02  2250   0.110E+02
DAV:   3    -0.439696263243E+02   -0.25855E+01   -0.25685E+01  2315   0.205E+01    0.112E+01
DAV:   4    -0.435012747750E+02    0.46835E+00   -0.44398E-01  2250   0.312E+00    0.664E+00
DAV:   5    -0.432729446478E+02    0.22833E+00   -0.49575E-01  2085   0.281E+00    0.381E-01
DAV:   6    -0.432775125107E+02   -0.45679E-02   -0.19786E-02  2265   0.624E-01    0.203E-01
DAV:   7    -0.432790917790E+02   -0.15793E-02   -0.29116E-03  2025   0.229E-01    0.121E-01
DAV:   8    -0.432791996001E+02   -0.10782E-03   -0.16091E-04  1820   0.631E-02    0.617E-02
DAV:   9    -0.432792531053E+02   -0.53505E-04   -0.71573E-05  1595   0.431E-02
   1 F= -.43279253E+02 E0= -.43279253E+02  d E =-.432793E+02
       N       E                     dE             d eps       ncg     rms          rms(c)
DAV:   1    -0.432925357581E+02   -0.13336E-01   -0.26386E+00  2030   0.640E+00
DAV:   2    -0.432985109834E+02   -0.59752E-02   -0.59752E-02  2210   0.103E+00
DAV:   3    -0.432985570482E+02   -0.46065E-04   -0.46065E-04  2155   0.104E-01    0.184E+00
DAV:   4    -0.432405747413E+02    0.57982E-01   -0.27809E-02  1845   0.595E-01    0.911E-01
DAV:   5    -0.432120515769E+02    0.28523E-01   -0.42115E-02  2070   0.740E-01    0.305E-01
DAV:   6    -0.432118374166E+02    0.21416E-03   -0.20628E-03  2055   0.202E-01    0.133E-01
DAV:   7    -0.432117762579E+02    0.61159E-04   -0.22343E-04  1885   0.540E-02
   2 F= -.43211776E+02 E0= -.43211776E+02  d E =0.674768E-01
       N       E                     dE             d eps       ncg     rms          rms(c)
DAV:   1    -0.433343701817E+02   -0.12253E+00   -0.13246E+00  2015   0.464E+00
DAV:   2    -0.433380196721E+02   -0.36495E-02   -0.36495E-02  2190   0.762E-01
DAV:   3    -0.433380404544E+02   -0.20782E-04   -0.20782E-04  2050   0.731E-02    0.131E+00
DAV:   4    -0.433092903032E+02    0.28750E-01   -0.13695E-02  1790   0.425E-01    0.636E-01
DAV:   5    -0.432953906216E+02    0.13900E-01   -0.20332E-02  1975   0.521E-01    0.231E-01
DAV:   6    -0.432953779327E+02    0.12689E-04   -0.10103E-03  2085   0.145E-01    0.103E-01
DAV:   7    -0.432953129945E+02    0.64938E-04   -0.87816E-05  1150   0.353E-02
   3 F= -.43295313E+02 E0= -.43295313E+02  d E =-.160599E-01
