 vasp.5.4.1 05Feb16 (build Feb 24 2020 14:33:01) complex                        
  
 executed on           IFC91_ompi date 2020.02.27  21:52:10
 running on   40 total cores
 distrk:  each k-point on   40 cores,    1 groups
 distr:  one band on NCORES_PER_BAND=   8 cores,    5 groups


--------------------------------------------------------------------------------------------------------


 INCAR:
 POTCAR:    PAW_PBE Si 05Jan2001                  
 POTCAR:    PAW_PBE Si 05Jan2001                  
   VRHFIN =Si: s2p2                                                             
   LEXCH  = PE                                                                  
   EATOM  =   103.0669 eV,    7.5752 Ry                                         
                                                                                
   TITEL  = PAW_PBE Si 05Jan2001                                                
   LULTRA =        F    use ultrasoft PP ?                                      
   IUNSCR =        1    unscreen: 0-lin 1-nonlin 2-no                           
   RPACOR =    1.500    partial core radius                                     
   POMASS =   28.085; ZVAL   =    4.000    mass and valenz                      
   RCORE  =    1.900    outmost cutoff radius                                   
   RWIGS  =    2.480; RWIGS  =    1.312    wigner-seitz radius (au A)           
   ENMAX  =  245.345; ENMIN  =  184.009 eV                                      
   ICORE  =        2    local potential                                         
   LCOR   =        T    correct aug charges                                     
   LPAW   =        T    paw PP                                                  
   EAUG   =  322.069                                                            
   DEXC   =    0.000                                                            
   RMAX   =    1.950    core radius for proj-oper                               
   RAUG   =    1.300    factor for augmentation sphere                          
   RDEP   =    1.993    radius for radial grids                                 
   RDEPT  =    1.837    core radius for aug-charge                              
                                                                                
   Atomic configuration                                                         
    6 entries                                                                   
     n  l   j            E        occ.                                          
     1  0  0.50     -1785.8828   2.0000                                         
     2  0  0.50      -139.4969   2.0000                                         
     2  1  1.50       -95.5546   6.0000                                         
     3  0  0.50       -10.8127   2.0000                                         
     3  1  0.50        -4.0811   2.0000                                         
     3  2  1.50        -4.0817   0.0000                                         
   Description                                                                  
     l       E           TYP  RCUT    TYP  RCUT                                 
     0    -10.8127223     23  1.900                                             
     0     -7.6451159     23  1.900                                             
     1     -4.0811372     23  1.900                                             
     1      2.4879257     23  1.900                                             
     2     -4.0817478      7  1.900                                             
  local pseudopotential read in
  partial core-charges read in
  partial kinetic energy density read in
  atomic valenz-charges read in
  non local Contribution for L=           0  read in
    real space projection operators read in
  non local Contribution for L=           0  read in
    real space projection operators read in
  non local Contribution for L=           1  read in
    real space projection operators read in
  non local Contribution for L=           1  read in
    real space projection operators read in
    PAW grid and wavefunctions read in
 
   number of l-projection  operators is LMAX  =           4
   number of lm-projection operators is LMMAX =           8
 
  PAW_PBE Si 05Jan2001                  :
 energy of atom  1       EATOM= -103.0669
 kinetic energy error for atom=    0.0061 (will be added to EATOM!!)
 
 
 POSCAR: Si dia                                  
  positions in direct lattice
  No initial velocities read in
 exchange correlation table for  LEXCH =        8
   RHO(1)=    0.500       N(1)  =     2000
   RHO(2)=  100.500       N(2)  =     4000
 


--------------------------------------------------------------------------------------------------------


 ion  position               nearest neighbor table
   1  0.000  0.000  0.000-   5 2.35   6 2.35   7 2.35   8 2.35
   2  0.000  0.500  0.500-   5 2.35   6 2.35   7 2.35   8 2.35
   3  0.500  0.000  0.500-   5 2.35   6 2.35   7 2.35   8 2.35
   4  0.500  0.500  0.000-   5 2.35   6 2.35   7 2.35   8 2.35
   5  0.250  0.250  0.250-   1 2.35   2 2.35   3 2.35   4 2.35
   6  0.750  0.750  0.250-   1 2.35   2 2.35   3 2.35   4 2.35
   7  0.750  0.250  0.750-   1 2.35   2 2.35   3 2.35   4 2.35
   8  0.250  0.750  0.750-   1 2.35   2 2.35   3 2.35   4 2.35
 
  LATTYP: Found a simple cubic cell.
 ALAT       =     5.4310000000
  
  Lattice vectors:
  
 A1 = (   5.4310000000,   0.0000000000,   0.0000000000)
 A2 = (   0.0000000000,   5.4310000000,   0.0000000000)
 A3 = (   0.0000000000,   0.0000000000,   5.4310000000)


Analysis of symmetry for initial positions (statically):
=====================================================================
 Subroutine PRICEL returns following result:
 
  LATTYP: Found a face centered cubic cell.
 ALAT       =     5.4310000000
  
  Lattice vectors:
  
 A1 = (   2.7155000000,   2.7155000000,   0.0000000000)
 A2 = (   2.7155000000,   0.0000000000,  -2.7155000000)
 A3 = (   0.0000000000,   2.7155000000,  -2.7155000000)
 
   4 primitive cells build up your supercell.
 

 Routine SETGRP: Setting up the symmetry group for a 
 simple cubic supercell.


 Subroutine GETGRP returns: Found 48 space group operations
 (whereof 24 operations were pure point group operations)
 out of a pool of 48 trial point group operations.


The static configuration has the point symmetry T_d .
 The point group associated with its full space group is O_h .


Analysis of symmetry for dynamics (positions and initial velocities):
=====================================================================
 Subroutine PRICEL returns following result:
 
  LATTYP: Found a face centered cubic cell.
 ALAT       =     5.4310000000
  
  Lattice vectors:
  
 A1 = (   2.7155000000,   2.7155000000,   0.0000000000)
 A2 = (   2.7155000000,   0.0000000000,  -2.7155000000)
 A3 = (   0.0000000000,   2.7155000000,  -2.7155000000)
 
   4 primitive cells build up your supercell.
 

 Routine SETGRP: Setting up the symmetry group for a 
 simple cubic supercell.


 Subroutine GETGRP returns: Found 48 space group operations
 (whereof 24 operations were pure point group operations)
 out of a pool of 48 trial point group operations.


The dynamic configuration has the point symmetry T_d .
 The point group associated with its full space group is O_h .


 Subroutine INISYM returns: Found 48 space group operations
 (whereof 24 operations are pure point group operations),
 and found     4 'primitive' translations

 
 
 KPOINTS: k-points                                

Automatic generation of k-mesh.
Space group operators:
 irot       det(A)        alpha          n_x          n_y          n_z        tau_x        tau_y        tau_z
    1     1.000000     0.000001     1.000000     0.000000     0.000000     0.000000     0.000000     0.000000
    2     1.000000   120.000000    -0.577350    -0.577350    -0.577350     0.000000     0.000000     0.000000
    3     1.000000   120.000000     0.577350     0.577350     0.577350     0.000000     0.000000     0.000000
    4    -1.000000    90.000000     0.000000     0.000000    -1.000000     0.000000     0.000000     0.000000
    5    -1.000000   180.000000     0.000000     0.707107     0.707107     0.000000     0.000000     0.000000
    6    -1.000000    90.000000     0.000000     1.000000     0.000000     0.000000     0.000000     0.000000
    7     1.000000   180.000000     0.000000     0.000000     1.000000     0.000000     0.000000     0.000000
    8     1.000000   120.000000    -0.577350     0.577350     0.577350     0.000000     0.000000     0.000000
    9     1.000000   120.000000    -0.577350     0.577350    -0.577350     0.000000     0.000000     0.000000
   10    -1.000000    90.000000     0.000000     0.000000     1.000000     0.000000     0.000000     0.000000
   11    -1.000000    90.000000    -1.000000     0.000000     0.000000     0.000000     0.000000     0.000000
   12    -1.000000   180.000000     0.707107     0.000000     0.707107     0.000000     0.000000     0.000000
   13     1.000000   120.000000     0.577350    -0.577350     0.577350     0.000000     0.000000     0.000000
   14     1.000000   120.000000    -0.577350    -0.577350     0.577350     0.000000     0.000000     0.000000
   15     1.000000   180.000000     1.000000     0.000000     0.000000     0.000000     0.000000     0.000000
   16    -1.000000    90.000000     0.000000    -1.000000     0.000000     0.000000     0.000000     0.000000
   17    -1.000000   180.000000     0.707107     0.707107     0.000000     0.000000     0.000000     0.000000
   18    -1.000000    90.000000     1.000000     0.000000     0.000000     0.000000     0.000000     0.000000
   19     1.000000   120.000000     0.577350    -0.577350    -0.577350     0.000000     0.000000     0.000000
   20     1.000000   180.000000     0.000000     1.000000     0.000000     0.000000     0.000000     0.000000
   21     1.000000   120.000000     0.577350     0.577350    -0.577350     0.000000     0.000000     0.000000
   22    -1.000000   180.000000     0.000000    -0.707107     0.707107     0.000000     0.000000     0.000000
   23    -1.000000   180.000000     0.707107    -0.707107     0.000000     0.000000     0.000000     0.000000
   24    -1.000000   180.000000     0.707107     0.000000    -0.707107     0.000000     0.000000     0.000000
   25    -1.000000     0.000001     1.000000     0.000000     0.000000     0.750000     0.750000    -0.750000
   26    -1.000000   120.000000    -0.577350    -0.577350    -0.577350     0.750000     0.750000    -0.750000
   27    -1.000000   120.000000     0.577350     0.577350     0.577350     0.750000     0.750000    -0.750000
   28     1.000000    90.000000     0.000000     0.000000    -1.000000     0.750000     0.750000    -0.750000
   29     1.000000   180.000000     0.000000     0.707107     0.707107     0.750000     0.750000    -0.750000
   30     1.000000    90.000000     0.000000     1.000000     0.000000     0.750000     0.750000    -0.750000
   31    -1.000000   180.000000     0.000000     0.000000     1.000000     0.750000     0.750000    -0.750000
   32    -1.000000   120.000000    -0.577350     0.577350     0.577350     0.750000     0.750000    -0.750000
   33    -1.000000   120.000000    -0.577350     0.577350    -0.577350     0.750000     0.750000    -0.750000
   34     1.000000    90.000000     0.000000     0.000000     1.000000     0.750000     0.750000    -0.750000
   35     1.000000    90.000000    -1.000000     0.000000     0.000000     0.750000     0.750000    -0.750000
   36     1.000000   180.000000     0.707107     0.000000     0.707107     0.750000     0.750000    -0.750000
   37    -1.000000   120.000000     0.577350    -0.577350     0.577350     0.750000     0.750000    -0.750000
   38    -1.000000   120.000000    -0.577350    -0.577350     0.577350     0.750000     0.750000    -0.750000
   39    -1.000000   180.000000     1.000000     0.000000     0.000000     0.750000     0.750000    -0.750000
   40     1.000000    90.000000     0.000000    -1.000000     0.000000     0.750000     0.750000    -0.750000
   41     1.000000   180.000000     0.707107     0.707107     0.000000     0.750000     0.750000    -0.750000
   42     1.000000    90.000000     1.000000     0.000000     0.000000     0.750000     0.750000    -0.750000
   43    -1.000000   120.000000     0.577350    -0.577350    -0.577350     0.750000     0.750000    -0.750000
   44    -1.000000   180.000000     0.000000     1.000000     0.000000     0.750000     0.750000    -0.750000
   45    -1.000000   120.000000     0.577350     0.577350    -0.577350     0.750000     0.750000    -0.750000
   46     1.000000   180.000000     0.000000    -0.707107     0.707107     0.750000     0.750000    -0.750000
   47     1.000000   180.000000     0.707107    -0.707107     0.000000     0.750000     0.750000    -0.750000
   48     1.000000   180.000000     0.707107     0.000000    -0.707107     0.750000     0.750000    -0.750000
 
 Subroutine IBZKPT returns following result:
 ===========================================
 
 Found     35 irreducible k-points:
 
 Following reciprocal coordinates:
            Coordinates               Weight
  0.000000  0.000000  0.000000      1.000000
  0.111111  0.000000  0.000000      6.000000
  0.222222  0.000000  0.000000      6.000000
  0.333333  0.000000  0.000000      6.000000
  0.444444  0.000000  0.000000      6.000000
  0.111111  0.111111  0.000000     12.000000
  0.222222  0.111111  0.000000     24.000000
  0.333333  0.111111  0.000000     24.000000
  0.444444  0.111111  0.000000     24.000000
  0.222222  0.222222  0.000000     12.000000
  0.333333  0.222222  0.000000     24.000000
  0.444444  0.222222  0.000000     24.000000
  0.333333  0.333333  0.000000     12.000000
  0.444444  0.333333  0.000000     24.000000
  0.444444  0.444444  0.000000     12.000000
  0.111111  0.111111  0.111111      8.000000
  0.222222  0.111111  0.111111     24.000000
  0.333333  0.111111  0.111111     24.000000
  0.444444  0.111111  0.111111     24.000000
  0.222222  0.222222  0.111111     24.000000
  0.333333  0.222222  0.111111     48.000000
  0.444444  0.222222  0.111111     48.000000
  0.333333  0.333333  0.111111     24.000000
  0.444444  0.333333  0.111111     48.000000
  0.444444  0.444444  0.111111     24.000000
  0.222222  0.222222  0.222222      8.000000
  0.333333  0.222222  0.222222     24.000000
  0.444444  0.222222  0.222222     24.000000
  0.333333  0.333333  0.222222     24.000000
  0.444444  0.333333  0.222222     48.000000
  0.444444  0.444444  0.222222     24.000000
  0.333333  0.333333  0.333333      8.000000
  0.444444  0.333333  0.333333     24.000000
  0.444444  0.444444  0.333333     24.000000
  0.444444  0.444444  0.444444      8.000000
 
 Following cartesian coordinates:
            Coordinates               Weight
  0.000000  0.000000  0.000000      1.000000
  0.111111  0.000000  0.000000      6.000000
  0.222222  0.000000  0.000000      6.000000
  0.333333  0.000000  0.000000      6.000000
  0.444444  0.000000  0.000000      6.000000
  0.111111  0.111111  0.000000     12.000000
  0.222222  0.111111  0.000000     24.000000
  0.333333  0.111111  0.000000     24.000000
  0.444444  0.111111  0.000000     24.000000
  0.222222  0.222222  0.000000     12.000000
  0.333333  0.222222  0.000000     24.000000
  0.444444  0.222222  0.000000     24.000000
  0.333333  0.333333  0.000000     12.000000
  0.444444  0.333333  0.000000     24.000000
  0.444444  0.444444  0.000000     12.000000
  0.111111  0.111111  0.111111      8.000000
  0.222222  0.111111  0.111111     24.000000
  0.333333  0.111111  0.111111     24.000000
  0.444444  0.111111  0.111111     24.000000
  0.222222  0.222222  0.111111     24.000000
  0.333333  0.222222  0.111111     48.000000
  0.444444  0.222222  0.111111     48.000000
  0.333333  0.333333  0.111111     24.000000
  0.444444  0.333333  0.111111     48.000000
  0.444444  0.444444  0.111111     24.000000
  0.222222  0.222222  0.222222      8.000000
  0.333333  0.222222  0.222222     24.000000
  0.444444  0.222222  0.222222     24.000000
  0.333333  0.333333  0.222222     24.000000
  0.444444  0.333333  0.222222     48.000000
  0.444444  0.444444  0.222222     24.000000
  0.333333  0.333333  0.333333      8.000000
  0.444444  0.333333  0.333333     24.000000
  0.444444  0.444444  0.333333     24.000000
  0.444444  0.444444  0.444444      8.000000
 


--------------------------------------------------------------------------------------------------------




 Dimension of arrays:
   k-points           NKPTS =     35   k-points in BZ     NKDIM =     35   number of bands    NBANDS=     25
   number of dos      NEDOS =    301   number of ions     NIONS =      8
   non local maximal  LDIM  =      4   non local SUM 2l+1 LMDIM =      8
   total plane-waves  NPLWV =  21952
   max r-space proj   IRMAX =      1   max aug-charges    IRDMAX=   4781
   dimension x,y,z NGX =    28 NGY =   28 NGZ =   28
   dimension x,y,z NGXF=    56 NGYF=   56 NGZF=   56
   support grid    NGXF=    56 NGYF=   56 NGZF=   56
   ions per type =               8
 NGX,Y,Z   is equivalent  to a cutoff of   8.57,  8.57,  8.57 a.u.
 NGXF,Y,Z  is equivalent  to a cutoff of  17.14, 17.14, 17.14 a.u.


 I would recommend the setting:
   dimension x,y,z NGX =    27 NGY =   27 NGZ =   27
 SYSTEM =  diamond Si                              
 POSCAR =  Si dia                                  

 Startparameter for this run:
   NWRITE =      2    write-flag & timer
   PREC   = accura    normal or accurate (medium, high low for compatibility)
   ISTART =      0    job   : 0-new  1-cont  2-samecut
   ICHARG =      2    charge: 1-file 2-atom 10-const
   ISPIN  =      1    spin polarized calculation?
   LNONCOLLINEAR =      F non collinear calculations
   LSORBIT =      F    spin-orbit coupling
   INIWAV =      1    electr: 0-lowe 1-rand  2-diag
   LASPH  =      F    aspherical Exc in radial PAW
   METAGGA=      F    non-selfconsistent MetaGGA calc.

 Electronic Relaxation 1
   ENCUT  =  240.0 eV  17.64 Ry    4.20 a.u.   6.86  6.86  6.86*2*pi/ulx,y,z
   ENINI  =  240.0     initial cutoff
   ENAUG  =  322.1 eV  augmentation charge cutoff
   NELM   =     60;   NELMIN=  0; NELMDL=  3     # of ELM steps 
   EDIFF  = 0.1E-03   stopping-criterion for ELM
   LREAL  =      F    real-space projection
   NLSPLINE    = F    spline interpolate recip. space projectors
   LCOMPAT=      F    compatible to vasp.4.4
   GGA_COMPAT  = T    GGA compatible to vasp.4.4-vasp.4.6
   LMAXPAW     = -100 max onsite density
   LMAXMIX     =    2 max onsite mixed and CHGCAR
   VOSKOWN=      0    Vosko Wilk Nusair interpolation
   ROPT   =    0.00000
 Ionic relaxation
   EDIFFG = -.1E-01   stopping-criterion for IOM
   NSW    =      9    number of steps for IOM
   NBLOCK =      1;   KBLOCK =      9    inner block; outer block 
   IBRION =      2    ionic relax: 0-MD 1-quasi-New 2-CG
   NFREE  =      1    steps in history (QN), initial steepest desc. (CG)
   ISIF   =      3    stress and relaxation
   IWAVPR =     11    prediction:  0-non 1-charg 2-wave 3-comb
   ISYM   =      2    0-nonsym 1-usesym 2-fastsym
   LCORR  =      T    Harris-Foulkes like correction to forces

   POTIM  = 1.0000    time-step for ionic-motion
   TEIN   =    0.0    initial temperature
   TEBEG  =    0.0;   TEEND  =   0.0 temperature during run
   SMASS  =  -3.00    Nose mass-parameter (am)
   estimated Nose-frequenzy (Omega)   =  0.10E-29 period in steps =****** mass=  -0.674E-27a.u.
   SCALEE = 1.0000    scale energy and forces
   NPACO  =    256;   APACO  = 16.0  distance and # of slots for P.C.
   PSTRESS=    0.0 pullay stress

  Mass of Ions in am
   POMASS =  28.09
  Ionic Valenz
   ZVAL   =   4.00
  Atomic Wigner-Seitz radii
   RWIGS  =  -1.00
  virtual crystal weights 
   VCA    =   1.00
   NELECT =      32.0000    total number of electrons
   NUPDOWN=      -1.0000    fix difference up-down

 DOS related values:
   EMIN   =  10.00;   EMAX   =-10.00  energy-range for DOS
   EFERMI =   0.00
   ISMEAR =     0;   SIGMA  =   0.10  broadening in eV -4-tet -1-fermi 0-gaus

 Electronic relaxation 2 (details)
   IALGO  =     38    algorithm
   LDIAG  =      T    sub-space diagonalisation (order eigenvalues)
   LSUBROT=      F    optimize rotation matrix (better conditioning)
   TURBO    =      0    0=normal 1=particle mesh
   IRESTART =      0    0=no restart 2=restart with 2 vectors
   NREBOOT  =      0    no. of reboots
   NMIN     =      0    reboot dimension
   EREF     =   0.00    reference energy to select bands
   IMIX   =      4    mixing-type and parameters
     AMIX     =   0.40;   BMIX     =  1.00
     AMIX_MAG =   1.60;   BMIX_MAG =  1.00
     AMIN     =   0.10
     WC   =   100.;   INIMIX=   1;  MIXPRE=   1;  MAXMIX= -45

 Intra band minimization:
   WEIMIN = 0.0010     energy-eigenvalue tresh-hold
   EBREAK =  0.10E-05  absolut break condition
   DEPER  =   0.30     relativ break condition  

   TIME   =   0.40     timestep for ELM

  volume/ion in A,a.u.               =      20.02       135.13
  Fermi-wavevector in a.u.,A,eV,Ry     =   0.956999  1.808467 12.460868  0.915848
  Thomas-Fermi vector in A             =   2.085978
 
 Write flags
   LWAVE  =      T    write WAVECAR
   LCHARG =      T    write CHGCAR
   LVTOT  =      F    write LOCPOT, total local potential
   LVHAR  =      F    write LOCPOT, Hartree potential only
   LELF   =      F    write electronic localiz. function (ELF)
   LORBIT =      0    0 simple, 1 ext, 2 COOP (PROOUT)


 Dipole corrections
   LMONO  =      F    monopole corrections only (constant potential shift)
   LDIPOL =      F    correct potential (dipole corrections)
   IDIPOL =      0    1-x, 2-y, 3-z, 4-all directions 
   EPSILON=  1.0000000 bulk dielectric constant

 Exchange correlation treatment:
   GGA     =    --    GGA type
   LEXCH   =     8    internal setting for exchange type
   VOSKOWN=      0    Vosko Wilk Nusair interpolation
   LHFCALC =     F    Hartree Fock is set to
   LHFONE  =     F    Hartree Fock one center treatment
   AEXX    =    0.0000 exact exchange contribution

 Linear response parameters
   LEPSILON=     F    determine dielectric tensor
   LRPA    =     F    only Hartree local field effects (RPA)
   LNABLA  =     F    use nabla operator in PAW spheres
   LVEL    =     F    velocity operator in full k-point grid
   LINTERFAST=   F  fast interpolation
   KINTER  =     0    interpolate to denser k-point grid
   CSHIFT  =0.1000    complex shift for real part using Kramers Kronig
   OMEGAMAX=  -1.0    maximum frequency
   DEG_THRESHOLD= 0.2000000E-02 threshold for treating states as degnerate
   RTIME   =    0.100 relaxation time in fs

 Orbital magnetization related:
   ORBITALMAG=     F  switch on orbital magnetization
   LCHIMAG   =     F  perturbation theory with respect to B field
   DQ        =  0.001000  dq finite difference perturbation B field



--------------------------------------------------------------------------------------------------------


 conjugate gradient relaxation of ions
 charge density and potential will be updated during run
 non-spin polarized calculation
 Variant of blocked Davidson
 Davidson routine will perform the subspace rotation
 perform sub-space diagonalisation
    after iterative eigenvector-optimisation
 modified Broyden-mixing scheme, WC =      100.0
 initial mixing is a Kerker type mixing with AMIX =  0.4000 and BMIX =      1.0000
 Hartree-type preconditioning will be used
 using additional bands            9
 reciprocal scheme for non local part
 use partial core corrections
 calculate Harris-corrections to forces 
   (improved forces if not selfconsistent)
 use gradient corrections 
 use of overlap-Matrix (Vanderbilt PP)
 Gauss-broadening in eV      SIGMA  =   0.10


--------------------------------------------------------------------------------------------------------


  energy-cutoff  :      240.00
  volume of cell :      160.19
      direct lattice vectors                 reciprocal lattice vectors
     5.431000000  0.000000000  0.000000000     0.184128153  0.000000000  0.000000000
     0.000000000  5.431000000  0.000000000     0.000000000  0.184128153  0.000000000
     0.000000000  0.000000000  5.431000000     0.000000000  0.000000000  0.184128153

  length of vectors
     5.431000000  5.431000000  5.431000000     0.184128153  0.184128153  0.184128153


 
 k-points in units of 2pi/SCALE and weight: k-points                                
   0.00000000  0.00000000  0.00000000       0.001
   0.11111111  0.00000000  0.00000000       0.008
   0.22222222  0.00000000  0.00000000       0.008
   0.33333333  0.00000000  0.00000000       0.008
   0.44444444  0.00000000  0.00000000       0.008
   0.11111111  0.11111111  0.00000000       0.016
   0.22222222  0.11111111  0.00000000       0.033
   0.33333333  0.11111111  0.00000000       0.033
   0.44444444  0.11111111  0.00000000       0.033
   0.22222222  0.22222222  0.00000000       0.016
   0.33333333  0.22222222  0.00000000       0.033
   0.44444444  0.22222222  0.00000000       0.033
   0.33333333  0.33333333  0.00000000       0.016
   0.44444444  0.33333333  0.00000000       0.033
   0.44444444  0.44444444  0.00000000       0.016
   0.11111111  0.11111111  0.11111111       0.011
   0.22222222  0.11111111  0.11111111       0.033
   0.33333333  0.11111111  0.11111111       0.033
   0.44444444  0.11111111  0.11111111       0.033
   0.22222222  0.22222222  0.11111111       0.033
   0.33333333  0.22222222  0.11111111       0.066
   0.44444444  0.22222222  0.11111111       0.066
   0.33333333  0.33333333  0.11111111       0.033
   0.44444444  0.33333333  0.11111111       0.066
   0.44444444  0.44444444  0.11111111       0.033
   0.22222222  0.22222222  0.22222222       0.011
   0.33333333  0.22222222  0.22222222       0.033
   0.44444444  0.22222222  0.22222222       0.033
   0.33333333  0.33333333  0.22222222       0.033
   0.44444444  0.33333333  0.22222222       0.066
   0.44444444  0.44444444  0.22222222       0.033
   0.33333333  0.33333333  0.33333333       0.011
   0.44444444  0.33333333  0.33333333       0.033
   0.44444444  0.44444444  0.33333333       0.033
   0.44444444  0.44444444  0.44444444       0.011
 
 k-points in reciprocal lattice and weights: k-points                                
   0.00000000  0.00000000  0.00000000       0.001
   0.11111111  0.00000000  0.00000000       0.008
   0.22222222  0.00000000  0.00000000       0.008
   0.33333333  0.00000000  0.00000000       0.008
   0.44444444  0.00000000  0.00000000       0.008
   0.11111111  0.11111111  0.00000000       0.016
   0.22222222  0.11111111  0.00000000       0.033
   0.33333333  0.11111111  0.00000000       0.033
   0.44444444  0.11111111  0.00000000       0.033
   0.22222222  0.22222222  0.00000000       0.016
   0.33333333  0.22222222  0.00000000       0.033
   0.44444444  0.22222222  0.00000000       0.033
   0.33333333  0.33333333  0.00000000       0.016
   0.44444444  0.33333333  0.00000000       0.033
   0.44444444  0.44444444  0.00000000       0.016
   0.11111111  0.11111111  0.11111111       0.011
   0.22222222  0.11111111  0.11111111       0.033
   0.33333333  0.11111111  0.11111111       0.033
   0.44444444  0.11111111  0.11111111       0.033
   0.22222222  0.22222222  0.11111111       0.033
   0.33333333  0.22222222  0.11111111       0.066
   0.44444444  0.22222222  0.11111111       0.066
   0.33333333  0.33333333  0.11111111       0.033
   0.44444444  0.33333333  0.11111111       0.066
   0.44444444  0.44444444  0.11111111       0.033
   0.22222222  0.22222222  0.22222222       0.011
   0.33333333  0.22222222  0.22222222       0.033
   0.44444444  0.22222222  0.22222222       0.033
   0.33333333  0.33333333  0.22222222       0.033
   0.44444444  0.33333333  0.22222222       0.066
   0.44444444  0.44444444  0.22222222       0.033
   0.33333333  0.33333333  0.33333333       0.011
   0.44444444  0.33333333  0.33333333       0.033
   0.44444444  0.44444444  0.33333333       0.033
   0.44444444  0.44444444  0.44444444       0.011
 
 position of ions in fractional coordinates (direct lattice) 
   0.00000000  0.00000000  0.00000000
   0.00000000  0.50000000  0.50000000
   0.50000000  0.00000000  0.50000000
   0.50000000  0.50000000  0.00000000
   0.25000000  0.25000000  0.25000000
   0.75000000  0.75000000  0.25000000
   0.75000000  0.25000000  0.75000000
   0.25000000  0.75000000  0.75000000
 
 position of ions in cartesian coordinates  (Angst):
   0.00000000  0.00000000  0.00000000
   0.00000000  2.71550000  2.71550000
   2.71550000  0.00000000  2.71550000
   2.71550000  2.71550000  0.00000000
   1.35775000  1.35775000  1.35775000
   4.07325000  4.07325000  1.35775000
   4.07325000  1.35775000  4.07325000
   1.35775000  4.07325000  4.07325000
 


--------------------------------------------------------------------------------------------------------


 k-point  1 :   0.0000 0.0000 0.0000  plane waves:    1357
 k-point  2 :   0.1111 0.0000 0.0000  plane waves:    1349
 k-point  3 :   0.2222 0.0000 0.0000  plane waves:    1346
 k-point  4 :   0.3333 0.0000 0.0000  plane waves:    1346
 k-point  5 :   0.4444 0.0000 0.0000  plane waves:    1366
 k-point  6 :   0.1111 0.1111 0.0000  plane waves:    1351
 k-point  7 :   0.2222 0.1111 0.0000  plane waves:    1346
 k-point  8 :   0.3333 0.1111 0.0000  plane waves:    1350
 k-point  9 :   0.4444 0.1111 0.0000  plane waves:    1365
 k-point 10 :   0.2222 0.2222 0.0000  plane waves:    1352
 k-point 11 :   0.3333 0.2222 0.0000  plane waves:    1352
 k-point 12 :   0.4444 0.2222 0.0000  plane waves:    1350
 k-point 13 :   0.3333 0.3333 0.0000  plane waves:    1346
 k-point 14 :   0.4444 0.3333 0.0000  plane waves:    1345
 k-point 15 :   0.4444 0.4444 0.0000  plane waves:    1344
 k-point 16 :   0.1111 0.1111 0.1111  plane waves:    1346
 k-point 17 :   0.2222 0.1111 0.1111  plane waves:    1346
 k-point 18 :   0.3333 0.1111 0.1111  plane waves:    1352
 k-point 19 :   0.4444 0.1111 0.1111  plane waves:    1343
 k-point 20 :   0.2222 0.2222 0.1111  plane waves:    1341
 k-point 21 :   0.3333 0.2222 0.1111  plane waves:    1349
 k-point 22 :   0.4444 0.2222 0.1111  plane waves:    1352
 k-point 23 :   0.3333 0.3333 0.1111  plane waves:    1345
 k-point 24 :   0.4444 0.3333 0.1111  plane waves:    1357
 k-point 25 :   0.4444 0.4444 0.1111  plane waves:    1351
 k-point 26 :   0.2222 0.2222 0.2222  plane waves:    1358
 k-point 27 :   0.3333 0.2222 0.2222  plane waves:    1360
 k-point 28 :   0.4444 0.2222 0.2222  plane waves:    1350
 k-point 29 :   0.3333 0.3333 0.2222  plane waves:    1360
 k-point 30 :   0.4444 0.3333 0.2222  plane waves:    1361
 k-point 31 :   0.4444 0.4444 0.2222  plane waves:    1357
 k-point 32 :   0.3333 0.3333 0.3333  plane waves:    1349
 k-point 33 :   0.4444 0.3333 0.3333  plane waves:    1355
 k-point 34 :   0.4444 0.4444 0.3333  plane waves:    1369
 k-point 35 :   0.4444 0.4444 0.4444  plane waves:    1358

 maximum and minimum number of plane-waves per node :       186      154

 maximum number of plane-waves:      1369
 maximum index in each direction: 
   IXMAX=    6   IYMAX=    6   IZMAX=    6
   IXMIN=   -7   IYMIN=   -7   IZMIN=   -7

 NGX is ok and might be reduce to  28
 NGY is ok and might be reduce to  28
 NGZ is ok and might be reduce to  28

 total amount of memory used by VASP on root node    31507. kBytes
========================================================================

   base      :      30000. kBytes
   nonl-proj :        414. kBytes
   fftplans  :        243. kBytes
   grid      :        329. kBytes
   one-center:          3. kBytes
   wavefun   :        518. kBytes
 
     INWAV:  cpu time    0.0000: real time    0.0000
 Broyden mixing: mesh for mixing (old mesh)
   NGX = 13   NGY = 13   NGZ = 13
  (NGX  = 56   NGY  = 56   NGZ  = 56)
  gives a total of   2197 points

 initial charge density was supplied:
 charge density of overlapping atoms calculated
 number of electron      32.0000000 magnetization 
 keeping initial charge density in first step


--------------------------------------------------------------------------------------------------------


 Maximum index for augmentation-charges          125 (set IRDMAX)


--------------------------------------------------------------------------------------------------------


 First call to EWALD:  gamma=   0.326
 Maximum number of real-space cells 3x 3x 3
 Maximum number of reciprocal cells 3x 3x 3

 FEWALD executed in parallel
    FEWALD:  cpu time    0.0012: real time    0.0012


----------------------------------------- Iteration    1(   1)  ---------------------------------------


    POTLOK:  cpu time    0.0062: real time    0.0063
    SETDIJ:  cpu time    0.0015: real time    0.0015
     EDDAV:  cpu time    0.4962: real time    0.5004
       DOS:  cpu time    0.0012: real time    0.0012
    --------------------------------------------
      LOOP:  cpu time    0.5064: real time    0.5121

 eigenvalue-minimisations  :  1750
 total energy-change (2. order) : 0.2796202E+02  (-0.7800895E+03)
 number of electron      32.0000000 magnetization 
 augmentation part       32.0000000 magnetization 

 Free energy of the ion-electron system (eV)
  ---------------------------------------------------
  alpha Z        PSCENC =        13.44915721
  Ewald energy   TEWEN  =      -914.08579262
  -Hartree energ DENC   =       -44.03749844
  -exchange      EXHF   =         0.00000000
  -V(xc)+E(xc)   XCENC  =       -74.41614067
  PAW double counting   =       704.99039692     -564.24414232
  entropy T*S    EENTRO =        -0.01097650
  eigenvalues    EBANDS =        81.83080375
  atomic energy  EATOM  =       824.48621262
  Solvation  Ediel_sol  =         0.00000000
  ---------------------------------------------------
  free energy    TOTEN  =        27.96201995 eV

  energy without entropy =       27.97299645  energy(sigma->0) =       27.96750820


--------------------------------------------------------------------------------------------------------




----------------------------------------- Iteration    1(   2)  ---------------------------------------


     EDDAV:  cpu time    0.2995: real time    0.3003
       DOS:  cpu time    0.0007: real time    0.0007
    --------------------------------------------
      LOOP:  cpu time    0.3006: real time    0.3111

 eigenvalue-minimisations  :  2250
 total energy-change (2. order) :-0.6934610E+02  (-0.6657651E+02)
 number of electron      32.0000000 magnetization 
 augmentation part       32.0000000 magnetization 

 Free energy of the ion-electron system (eV)
  ---------------------------------------------------
  alpha Z        PSCENC =        13.44915721
  Ewald energy   TEWEN  =      -914.08579262
  -Hartree energ DENC   =       -44.03749844
  -exchange      EXHF   =         0.00000000
  -V(xc)+E(xc)   XCENC  =       -74.41614067
  PAW double counting   =       704.99039692     -564.24414232
  entropy T*S    EENTRO =        -0.00000038
  eigenvalues    EBANDS =        12.47372696
  atomic energy  EATOM  =       824.48621262
  Solvation  Ediel_sol  =         0.00000000
  ---------------------------------------------------
  free energy    TOTEN  =       -41.38408072 eV

  energy without entropy =      -41.38408034  energy(sigma->0) =      -41.38408053


--------------------------------------------------------------------------------------------------------




----------------------------------------- Iteration    1(   3)  ---------------------------------------


     EDDAV:  cpu time    0.3273: real time    0.3284
       DOS:  cpu time    0.0006: real time    0.0006
    CHARGE:  cpu time    0.0140: real time    0.0141
    MIXING:  cpu time    0.0009: real time    0.0012
    --------------------------------------------
      LOOP:  cpu time    0.3432: real time    0.3476

 eigenvalue-minimisations  :  2315
 total energy-change (2. order) :-0.2585546E+01  (-0.2568512E+01)
 number of electron      31.9999960 magnetization 
 augmentation part       -1.8736091 magnetization 

 Broyden mixing:
  rms(total) = 0.11240E+01    rms(broyden)= 0.11239E+01
  rms(prec ) = 0.14626E+01
  weight for this iteration     100.00

 Free energy of the ion-electron system (eV)
  ---------------------------------------------------
  alpha Z        PSCENC =        13.44915721
  Ewald energy   TEWEN  =      -914.08579262
  -Hartree energ DENC   =       -44.03749844
  -exchange      EXHF   =         0.00000000
  -V(xc)+E(xc)   XCENC  =       -74.41614067
  PAW double counting   =       704.99039692     -564.24414232
  entropy T*S    EENTRO =        -0.00000000
  eigenvalues    EBANDS =         9.88818097
  atomic energy  EATOM  =       824.48621262
  Solvation  Ediel_sol  =         0.00000000
  ---------------------------------------------------
  free energy    TOTEN  =       -43.96962632 eV

  energy without entropy =      -43.96962632  energy(sigma->0) =      -43.96962632


--------------------------------------------------------------------------------------------------------




----------------------------------------- Iteration    1(   4)  ---------------------------------------


    POTLOK:  cpu time    0.0041: real time    0.0041
    SETDIJ:  cpu time    0.0020: real time    0.0020
     EDDAV:  cpu time    0.2974: real time    0.2982
       DOS:  cpu time    0.0007: real time    0.0007
    CHARGE:  cpu time    0.0130: real time    0.0130
    MIXING:  cpu time    0.0007: real time    0.0008
    --------------------------------------------
      LOOP:  cpu time    0.3183: real time    0.3216

 eigenvalue-minimisations  :  2250
 total energy-change (2. order) : 0.4683515E+00  (-0.4439818E-01)
 number of electron      31.9999960 magnetization 
 augmentation part       -1.8532296 magnetization 

 Broyden mixing:
  rms(total) = 0.66411E+00    rms(broyden)= 0.66411E+00
  rms(prec ) = 0.86639E+00
  weight for this iteration     100.00

 eigenvalues of (default mixing * dielectric matrix)
  average eigenvalue GAMMA=   2.4299
  2.4299

 Free energy of the ion-electron system (eV)
  ---------------------------------------------------
  alpha Z        PSCENC =        13.44915721
  Ewald energy   TEWEN  =      -914.08579262
  -Hartree energ DENC   =       -49.95473937
  -exchange      EXHF   =         0.00000000
  -V(xc)+E(xc)   XCENC  =       -73.45340575
  PAW double counting   =      1746.08200101    -1605.78769519
  entropy T*S    EENTRO =        -0.00000000
  eigenvalues    EBANDS =        15.76298732
  atomic energy  EATOM  =       824.48621262
  Solvation  Ediel_sol  =         0.00000000
  ---------------------------------------------------
  free energy    TOTEN  =       -43.50127478 eV

  energy without entropy =      -43.50127477  energy(sigma->0) =      -43.50127477


--------------------------------------------------------------------------------------------------------




----------------------------------------- Iteration    1(   5)  ---------------------------------------


    POTLOK:  cpu time    0.0039: real time    0.0039
    SETDIJ:  cpu time    0.0011: real time    0.0011
     EDDAV:  cpu time    0.2804: real time    0.2811
       DOS:  cpu time    0.0007: real time    0.0007
    CHARGE:  cpu time    0.0131: real time    0.0131
    MIXING:  cpu time    0.0005: real time    0.0005
    --------------------------------------------
      LOOP:  cpu time    0.3001: real time    0.3035

 eigenvalue-minimisations  :  2085
 total energy-change (2. order) : 0.2283301E+00  (-0.4957484E-01)
 number of electron      31.9999961 magnetization 
 augmentation part       -1.8256433 magnetization 

 Broyden mixing:
  rms(total) = 0.38072E-01    rms(broyden)= 0.38069E-01
  rms(prec ) = 0.56646E-01
  weight for this iteration     100.00

 eigenvalues of (default mixing * dielectric matrix)
  average eigenvalue GAMMA=   1.8604
  1.1864  2.5344

 Free energy of the ion-electron system (eV)
  ---------------------------------------------------
  alpha Z        PSCENC =        13.44915721
  Ewald energy   TEWEN  =      -914.08579262
  -Hartree energ DENC   =       -59.69337209
  -exchange      EXHF   =         0.00000000
  -V(xc)+E(xc)   XCENC  =       -71.85897033
  PAW double counting   =      4218.13148758    -4078.42679856
  entropy T*S    EENTRO =        -0.00000033
  eigenvalues    EBANDS =        24.72513187
  atomic energy  EATOM  =       824.48621262
  Solvation  Ediel_sol  =         0.00000000
  ---------------------------------------------------
  free energy    TOTEN  =       -43.27294465 eV

  energy without entropy =      -43.27294432  energy(sigma->0) =      -43.27294448


--------------------------------------------------------------------------------------------------------




----------------------------------------- Iteration    1(   6)  ---------------------------------------


    POTLOK:  cpu time    0.0039: real time    0.0039
    SETDIJ:  cpu time    0.0011: real time    0.0012
     EDDAV:  cpu time    0.3004: real time    0.3016
       DOS:  cpu time    0.0007: real time    0.0007
    CHARGE:  cpu time    0.0133: real time    0.0133
    MIXING:  cpu time    0.0006: real time    0.0006
    --------------------------------------------
      LOOP:  cpu time    0.3203: real time    0.3244

 eigenvalue-minimisations  :  2265
 total energy-change (2. order) :-0.4567863E-02  (-0.1978582E-02)
 number of electron      31.9999961 magnetization 
 augmentation part       -1.8273578 magnetization 

 Broyden mixing:
  rms(total) = 0.20285E-01    rms(broyden)= 0.20284E-01
  rms(prec ) = 0.29488E-01
  weight for this iteration     100.00

 eigenvalues of (default mixing * dielectric matrix)
  average eigenvalue GAMMA=   1.9578
  2.5267  2.5267  0.8199

 Free energy of the ion-electron system (eV)
  ---------------------------------------------------
  alpha Z        PSCENC =        13.44915721
  Ewald energy   TEWEN  =      -914.08579262
  -Hartree energ DENC   =       -59.65899114
  -exchange      EXHF   =         0.00000000
  -V(xc)+E(xc)   XCENC  =       -71.83404271
  PAW double counting   =      4288.22384409    -4148.45589741
  entropy T*S    EENTRO =        -0.00000023
  eigenvalues    EBANDS =        24.59799768
  atomic energy  EATOM  =       824.48621262
  Solvation  Ediel_sol  =         0.00000000
  ---------------------------------------------------
  free energy    TOTEN  =       -43.27751251 eV

  energy without entropy =      -43.27751228  energy(sigma->0) =      -43.27751240


--------------------------------------------------------------------------------------------------------




----------------------------------------- Iteration    1(   7)  ---------------------------------------


    POTLOK:  cpu time    0.0038: real time    0.0038
    SETDIJ:  cpu time    0.0012: real time    0.0012
     EDDAV:  cpu time    0.2755: real time    0.2767
       DOS:  cpu time    0.0007: real time    0.0007
    CHARGE:  cpu time    0.0130: real time    0.0131
    MIXING:  cpu time    0.0005: real time    0.0005
    --------------------------------------------
      LOOP:  cpu time    0.2951: real time    0.2991

 eigenvalue-minimisations  :  2025
 total energy-change (2. order) :-0.1579268E-02  (-0.2911565E-03)
 number of electron      31.9999961 magnetization 
 augmentation part       -1.8295706 magnetization 

 Broyden mixing:
  rms(total) = 0.12113E-01    rms(broyden)= 0.12113E-01
  rms(prec ) = 0.14164E-01
  weight for this iteration     100.00

 eigenvalues of (default mixing * dielectric matrix)
  average eigenvalue GAMMA=   1.7811
  2.4514  2.4514  1.1108  1.1108

 Free energy of the ion-electron system (eV)
  ---------------------------------------------------
  alpha Z        PSCENC =        13.44915721
  Ewald energy   TEWEN  =      -914.08579262
  -Hartree energ DENC   =       -59.48182137
  -exchange      EXHF   =         0.00000000
  -V(xc)+E(xc)   XCENC  =       -71.83945489
  PAW double counting   =      4260.00348389    -4120.17372285
  entropy T*S    EENTRO =        -0.00000015
  eigenvalues    EBANDS =        24.36284637
  atomic energy  EATOM  =       824.48621262
  Solvation  Ediel_sol  =         0.00000000
  ---------------------------------------------------
  free energy    TOTEN  =       -43.27909178 eV

  energy without entropy =      -43.27909163  energy(sigma->0) =      -43.27909171


--------------------------------------------------------------------------------------------------------




----------------------------------------- Iteration    1(   8)  ---------------------------------------


    POTLOK:  cpu time    0.0038: real time    0.0038
    SETDIJ:  cpu time    0.0011: real time    0.0012
     EDDAV:  cpu time    0.2622: real time    0.2630
       DOS:  cpu time    0.0007: real time    0.0007
    CHARGE:  cpu time    0.0130: real time    0.0130
    MIXING:  cpu time    0.0005: real time    0.0005
    --------------------------------------------
      LOOP:  cpu time    0.2816: real time    0.2852

 eigenvalue-minimisations  :  1820
 total energy-change (2. order) :-0.1078211E-03  (-0.1609118E-04)
 number of electron      31.9999961 magnetization 
 augmentation part       -1.8292892 magnetization 

 Broyden mixing:
  rms(total) = 0.61685E-02    rms(broyden)= 0.61685E-02
  rms(prec ) = 0.67156E-02
  weight for this iteration     100.00

 eigenvalues of (default mixing * dielectric matrix)
  average eigenvalue GAMMA=   1.9400
  3.0739  2.4892  2.2396  0.9834  0.9138

 Free energy of the ion-electron system (eV)
  ---------------------------------------------------
  alpha Z        PSCENC =        13.44915721
  Ewald energy   TEWEN  =      -914.08579262
  -Hartree energ DENC   =       -59.61079564
  -exchange      EXHF   =         0.00000000
  -V(xc)+E(xc)   XCENC  =       -71.82347552
  PAW double counting   =      4239.61484806    -4099.79455082
  entropy T*S    EENTRO =        -0.00000015
  eigenvalues    EBANDS =        24.48519728
  atomic energy  EATOM  =       824.48621262
  Solvation  Ediel_sol  =         0.00000000
  ---------------------------------------------------
  free energy    TOTEN  =       -43.27919960 eV

  energy without entropy =      -43.27919945  energy(sigma->0) =      -43.27919952


--------------------------------------------------------------------------------------------------------




----------------------------------------- Iteration    1(   9)  ---------------------------------------


    POTLOK:  cpu time    0.0038: real time    0.0038
    SETDIJ:  cpu time    0.0011: real time    0.0011
     EDDAV:  cpu time    0.2614: real time    0.2623
       DOS:  cpu time    0.0007: real time    0.0007
    --------------------------------------------
      LOOP:  cpu time    0.2674: real time    0.2713

 eigenvalue-minimisations  :  1595
 total energy-change (2. order) :-0.5350521E-04  (-0.7157283E-05)
 number of electron      31.9999961 magnetization 
 augmentation part       -1.8292892 magnetization 

 Free energy of the ion-electron system (eV)
  ---------------------------------------------------
  alpha Z        PSCENC =        13.44915721
  Ewald energy   TEWEN  =      -914.08579262
  -Hartree energ DENC   =       -59.65439520
  -exchange      EXHF   =         0.00000000
  -V(xc)+E(xc)   XCENC  =       -71.81894637
  PAW double counting   =      4211.57535641    -4071.75559055
  entropy T*S    EENTRO =        -0.00000015
  eigenvalues    EBANDS =        24.52474554
  atomic energy  EATOM  =       824.48621262
  Solvation  Ediel_sol  =         0.00000000
  ---------------------------------------------------
  free energy    TOTEN  =       -43.27925311 eV

  energy without entropy =      -43.27925296  energy(sigma->0) =      -43.27925303


--------------------------------------------------------------------------------------------------------




 average (electrostatic) potential at core
  the test charge radii are     0.9892
  (the norm of the test charge is              1.0000)
       1 -83.2542       2 -83.2542       3 -83.2542       4 -83.2542       5 -83.2542
       6 -83.2542       7 -83.2542       8 -83.2542
 
 
 
 E-fermi :   6.1247     XC(G=0):  -9.4096     alpha+bet :-11.9779


 k-point     1 :       0.0000    0.0000    0.0000
  band No.  band energies     occupation 
      1      -6.1324      2.00000
      2      -1.9879      2.00000
      3      -1.9879      2.00000
      4      -1.9879      2.00000
      5      -1.9879      2.00000
      6      -1.9879      2.00000
      7      -1.9879      2.00000
      8       2.9779      2.00000
      9       2.9779      2.00000
     10       2.9779      2.00000
     11       2.9779      2.00000
     12       2.9779      2.00000
     13       2.9779      2.00000
     14       5.8376      1.99995
     15       5.8376      1.99995
     16       5.8376      1.99995
     17       6.5548      0.00000
     18       6.5548      0.00000
     19       6.5548      0.00000
     20       6.5548      0.00000
     21       6.5548      0.00000
     22       6.5548      0.00000
     23       8.4037      0.00000
     24       8.4037      0.00000
     25       8.4037      0.00000

 k-point     2 :       0.1111    0.0000    0.0000
  band No.  band energies     occupation 
      1      -6.0783      2.00000
      2      -2.8135      2.00000
      3      -1.9703      2.00000
      4      -1.9703      2.00000
      5      -1.9703      2.00000
      6      -1.9703      2.00000
      7      -1.0972      2.00000
      8       2.8270      2.00000
      9       2.8270      2.00000
     10       2.8270      2.00000
     11       2.8270      2.00000
     12       3.0268      2.00000
     13       3.0268      2.00000
     14       5.4972      2.00000
     15       5.6242      2.00000
     16       5.6242      2.00000
     17       6.4278      0.00002
     18       6.8294      0.00000
     19       6.8423      0.00000
     20       6.8423      0.00000
     21       6.8423      0.00000
     22       6.8423      0.00000
     23       8.2746      0.00000
     24       8.6839      0.00000
     25       8.6839      0.00000

 k-point     3 :       0.2222    0.0000    0.0000
  band No.  band energies     occupation 
      1      -5.9167      2.00000
      2      -3.5632      2.00000
      3      -1.9237      2.00000
      4      -1.9237      2.00000
      5      -1.9237      2.00000
      6      -1.9237      2.00000
      7      -0.1564      2.00000
      8       2.4998      2.00000
      9       2.4998      2.00000
     10       2.4998      2.00000
     11       2.4998      2.00000
     12       3.1731      2.00000
     13       3.1731      2.00000
     14       4.7241      2.00000
     15       5.1568      2.00000
     16       5.1568      2.00000
     17       6.4367      0.00001
     18       7.2569      0.00000
     19       7.5832      0.00000
     20       7.5832      0.00000
     21       7.5832      0.00000
     22       7.5832      0.00000
     23       7.9493      0.00000
     24       9.3486      0.00000
     25       9.3486      0.00000

 k-point     4 :       0.3333    0.0000    0.0000
  band No.  band energies     occupation 
      1      -5.6484      2.00000
      2      -4.2279      2.00000
      3      -1.8680      2.00000
      4      -1.8680      2.00000
      5      -1.8680      2.00000
      6      -1.8680      2.00000
      7       0.8196      2.00000
      8       2.1862      2.00000
      9       2.1862      2.00000
     10       2.1862      2.00000
     11       2.1862      2.00000
     12       3.4138      2.00000
     13       3.4138      2.00000
     14       3.7951      2.00000
     15       4.6409      2.00000
     16       4.6409      2.00000
     17       6.5705      0.00000
     18       7.5442      0.00000
     19       7.8414      0.00000
     20       8.5949      0.00000
     21       8.5949      0.00000
     22       8.5949      0.00000
     23       8.5949      0.00000
     24      10.1539      0.00000
     25      10.1919      0.00000

 k-point     5 :       0.4444    0.0000    0.0000
  band No.  band energies     occupation 
      1      -5.2754      2.00000
      2      -4.8007      2.00000
      3      -1.8292      2.00000
      4      -1.8292      2.00000
      5      -1.8292      2.00000
      6      -1.8292      2.00000
      7       1.8143      2.00000
      8       2.0028      2.00000
      9       2.0028      2.00000
     10       2.0028      2.00000
     11       2.0028      2.00000
     12       2.8124      2.00000
     13       3.7444      2.00000
     14       3.7444      2.00000
     15       4.1581      2.00000
     16       4.1581      2.00000
     17       6.8118      0.00000
     18       7.1477      0.00000
     19       8.5720      0.00000
     20       9.4061      0.00000
     21       9.7405      0.00000
     22       9.7405      0.00000
     23       9.7405      0.00000
     24       9.7405      0.00000
     25      11.1552      0.00000

 k-point     6 :       0.1111    0.1111    0.0000
  band No.  band energies     occupation 
      1      -6.0245      2.00000
      2      -2.7833      2.00000
      3      -2.7833      2.00000
      4      -2.0405      2.00000
      5      -1.8711      2.00000
      6      -1.0991      2.00000
      7      -1.0991      2.00000
      8       2.4113      2.00000
      9       2.8496      2.00000
     10       2.8496      2.00000
     11       2.9118      2.00000
     12       2.9118      2.00000
     13       3.0643      2.00000
     14       4.9620      2.00000
     15       5.4095      2.00000
     16       5.7878      2.00000
     17       6.6547      0.00000
     18       6.7293      0.00000
     19       6.7293      0.00000
     20       7.0979      0.00000
     21       7.0979      0.00000
     22       7.4871      0.00000
     23       8.5149      0.00000
     24       8.6042      0.00000
     25       8.6681      0.00000

 k-point     7 :       0.2222    0.1111    0.0000
  band No.  band energies     occupation 
      1      -5.8635      2.00000
      2      -3.5248      2.00000
      3      -2.6972      2.00000
      4      -2.0999      2.00000
      5      -1.7366      2.00000
      6      -1.1133      2.00000
      7      -0.1885      2.00000
      8       2.0078      2.00000
      9       2.4617      2.00000
     10       2.6713      2.00000
     11       2.9770      2.00000
     12       2.9999      2.00000
     13       3.1066      2.00000
     14       4.2232      2.00000
     15       4.9414      2.00000
     16       5.4948      2.00000
     17       6.7481      0.00000
     18       7.0383      0.00000
     19       7.4930      0.00000
     20       7.5034      0.00000
     21       7.8054      0.00000
     22       8.2408      0.00000
     23       8.4123      0.00000
     24       9.0266      0.00000
     25       9.2434      0.00000

 k-point     8 :       0.3333    0.1111    0.0000
  band No.  band energies     occupation 
      1      -5.5963      2.00000
      2      -4.1839      2.00000
      3      -2.5685      2.00000
      4      -2.1737      2.00000
      5      -1.5748      2.00000
      6      -1.1609      2.00000
      7       0.7403      2.00000
      8       1.7369      2.00000
      9       2.0653      2.00000
     10       2.4734      2.00000
     11       2.7599      2.00000
     12       3.2054      2.00000
     13       3.4126      2.00000
     14       3.4163      2.00000
     15       4.4221      2.00000
     16       4.9353      2.00000
     17       6.8866      0.00000
     18       7.8491      0.00000
     19       7.8654      0.00000
     20       8.0630      0.00000
     21       8.5217      0.00000
     22       8.7895      0.00000
     23       9.5114      0.00000
     24       9.6667      0.00000
     25      10.1057      0.00000

 k-point     9 :       0.4444    0.1111    0.0000
  band No.  band energies     occupation 
      1      -5.2251      2.00000
      2      -4.7528      2.00000
      3      -2.4201      2.00000
      4      -2.2812      2.00000
      5      -1.4061      2.00000
      6      -1.2595      2.00000
      7       1.6561      2.00000
      8       1.6639      2.00000
      9       1.7757      2.00000
     10       2.4188      2.00000
     11       2.5289      2.00000
     12       2.5605      2.00000
     13       3.5291      2.00000
     14       3.8288      2.00000
     15       3.9400      2.00000
     16       4.3473      2.00000
     17       7.1305      0.00000
     18       7.4613      0.00000
     19       8.7682      0.00000
     20       8.9458      0.00000
     21       9.5543      0.00000
     22       9.7014      0.00000
     23       9.7933      0.00000
     24      10.4864      0.00000
     25      10.5550      0.00000

 k-point    10 :       0.2222    0.2222    0.0000
  band No.  band energies     occupation 
      1      -5.7043      2.00000
      2      -3.4122      2.00000
      3      -3.4122      2.00000
      4      -2.2889      2.00000
      5      -1.5211      2.00000
      6      -0.2914      2.00000
      7      -0.2914      2.00000
      8       1.6461      2.00000
      9       2.5480      2.00000
     10       2.5480      2.00000
     11       2.9846      2.00000
     12       2.9846      2.00000
     13       3.3177      2.00000
     14       3.5102      2.00000
     15       4.4672      2.00000
     16       5.6124      2.00000
     17       6.9477      0.00000
     18       7.5251      0.00000
     19       7.5251      0.00000
     20       8.1689      0.00000
     21       8.1689      0.00000
     22       8.8483      0.00000
     23       8.8532      0.00000
     24       9.0630      0.00000
     25       9.4269      0.00000

 k-point    11 :       0.3333    0.2222    0.0000
  band No.  band energies     occupation 
      1      -5.4405      2.00000
      2      -4.0536      2.00000
      3      -3.2344      2.00000
      4      -2.5084      2.00000
      5      -1.2715      2.00000
      6      -0.4726      2.00000
      7       0.5158      2.00000
      8       1.4751      2.00000
      9       2.0956      2.00000
     10       2.7498      2.00000
     11       2.7784      2.00000
     12       2.9312      2.00000
     13       3.3337      2.00000
     14       3.4407      2.00000
     15       3.9447      2.00000
     16       5.2680      2.00000
     17       7.4168      0.00000
     18       7.6681      0.00000
     19       8.5603      0.00000
     20       8.5821      0.00000
     21       8.6791      0.00000
     22       9.1113      0.00000
     23       9.1441      0.00000
     24       9.8781      0.00000
     25      10.5584      0.00000

 k-point    12 :       0.4444    0.2222    0.0000
  band No.  band energies     occupation 
      1      -5.0747      2.00000
      2      -4.6106      2.00000
      3      -3.0075      2.00000
      4      -2.7558      2.00000
      5      -0.9963      2.00000
      6      -0.7185      2.00000
      7       1.2929      2.00000
      8       1.5096      2.00000
      9       1.7298      2.00000
     10       2.0422      2.00000
     11       3.0019      2.00000
     12       3.0587      2.00000
     13       3.1699      2.00000
     14       3.4626      2.00000
     15       4.0204      2.00000
     16       4.6671      2.00000
     17       7.9075      0.00000
     18       8.2226      0.00000
     19       8.3135      0.00000
     20       9.3256      0.00000
     21       9.4197      0.00000
     22       9.6730      0.00000
     23       9.7460      0.00000
     24      10.2509      0.00000
     25      10.3973      0.00000

 k-point    13 :       0.3333    0.3333    0.0000
  band No.  band energies     occupation 
      1      -5.1830      2.00000
      2      -3.8429      2.00000
      3      -3.8429      2.00000
      4      -2.8684      2.00000
      5      -0.9409      2.00000
      6       0.1864      2.00000
      7       0.1864      2.00000
      8       1.4178      2.00000
      9       2.1154      2.00000
     10       2.2618      2.00000
     11       2.2618      2.00000
     12       3.4203      2.00000
     13       3.5370      2.00000
     14       3.5370      2.00000
     15       3.7185      2.00000
     16       5.2695      2.00000
     17       7.4124      0.00000
     18       8.6988      0.00000
     19       8.6988      0.00000
     20       8.8833      0.00000
     21       9.4014      0.00000
     22       9.5666      0.00000
     23       9.5666      0.00000
     24       9.6999      0.00000
     25      10.0839      0.00000

 k-point    14 :       0.4444    0.3333    0.0000
  band No.  band energies     occupation 
      1      -4.8271      2.00000
      2      -4.3777      2.00000
      3      -3.5624      2.00000
      4      -3.2292      2.00000
      5      -0.5782      2.00000
      6      -0.1935      2.00000
      7       0.8250      2.00000
      8       1.4633      2.00000
      9       1.5514      2.00000
     10       1.8447      2.00000
     11       2.5487      2.00000
     12       2.9419      2.00000
     13       3.6848      2.00000
     14       3.7991      2.00000
     15       4.2227      2.00000
     16       4.8654      2.00000
     17       7.9459      0.00000
     18       8.8811      0.00000
     19       8.9218      0.00000
     20       9.0186      0.00000
     21       9.2061      0.00000
     22       9.4504      0.00000
     23       9.8740      0.00000
     24      10.1795      0.00000
     25      10.6431      0.00000

 k-point    15 :       0.4444    0.4444    0.0000
  band No.  band energies     occupation 
      1      -4.4867      2.00000
      2      -4.0612      2.00000
      3      -4.0612      2.00000
      4      -3.6725      2.00000
      5      -0.1350      2.00000
      6       0.3369      2.00000
      7       0.3369      2.00000
      8       0.8881      2.00000
      9       1.7569      2.00000
     10       2.0993      2.00000
     11       2.0993      2.00000
     12       2.4733      2.00000
     13       4.2290      2.00000
     14       4.3398      2.00000
     15       4.3398      2.00000
     16       4.7780      2.00000
     17       7.9955      0.00000
     18       8.5430      0.00000
     19       8.5430      0.00000
     20       8.5666      0.00000
     21      10.0675      0.00000
     22      10.0676      0.00000
     23      10.1701      0.00000
     24      10.5155      0.00000
     25      11.1563      0.00000

 k-point    16 :       0.1111    0.1111    0.1111
  band No.  band energies     occupation 
      1      -5.9709      2.00000
      2      -2.7588      2.00000
      3      -2.7588      2.00000
      4      -2.7588      2.00000
      5      -1.1035      2.00000
      6      -1.1035      2.00000
      7      -1.1035      2.00000
      8       2.4797      2.00000
      9       2.4797      2.00000
     10       2.4797      2.00000
     11       3.1123      2.00000
     12       3.1123      2.00000
     13       3.1123      2.00000
     14       4.4902      2.00000
     15       5.5991      2.00000
     16       5.5991      2.00000
     17       6.6938      0.00000
     18       6.6938      0.00000
     19       6.6938      0.00000
     20       7.5888      0.00000
     21       7.5888      0.00000
     22       7.5888      0.00000
     23       8.3837      0.00000
     24       8.7546      0.00000
     25       8.7546      0.00000

 k-point    17 :       0.2222    0.1111    0.1111
  band No.  band energies     occupation 
      1      -5.8105      2.00000
      2      -3.4889      2.00000
      3      -2.6926      2.00000
      4      -2.6926      2.00000
      5      -1.1207      2.00000
      6      -1.1207      2.00000
      7      -0.2321      2.00000
      8       2.0953      2.00000
      9       2.0953      2.00000
     10       2.6871      2.00000
     11       3.0579      2.00000
     12       3.0579      2.00000
     13       3.2558      2.00000
     14       3.7783      2.00000
     15       5.1701      2.00000
     16       5.4000      2.00000
     17       6.8131      0.00000
     18       7.0920      0.00000
     19       7.0920      0.00000
     20       7.8877      0.00000
     21       8.3537      0.00000
     22       8.4912      0.00000
     23       8.4912      0.00000
     24       8.7828      0.00000
     25       9.3330      0.00000

 k-point    18 :       0.3333    0.1111    0.1111
  band No.  band energies     occupation 
      1      -5.5446      2.00000
      2      -4.1413      2.00000
      3      -2.6084      2.00000
      4      -2.6084      2.00000
      5      -1.1541      2.00000
      6      -1.1541      2.00000
      7       0.6376      2.00000
      8       1.8302      2.00000
      9       1.8302      2.00000
     10       2.8510      2.00000
     11       2.8510      2.00000
     12       3.0346      2.00000
     13       3.0383      2.00000
     14       3.4919      2.00000
     15       4.6812      2.00000
     16       4.8209      2.00000
     17       7.0186      0.00000
     18       7.9185      0.00000
     19       7.9185      0.00000
     20       8.0425      0.00000
     21       8.3722      0.00000
     22       9.3827      0.00000
     23       9.5775      0.00000
     24       9.5775      0.00000
     25      10.0665      0.00000

 k-point    19 :       0.4444    0.1111    0.1111
  band No.  band energies     occupation 
      1      -5.1752      2.00000
      2      -4.7057      2.00000
      3      -2.5466      2.00000
      4      -2.5466      2.00000
      5      -1.1862      2.00000
      6      -1.1862      2.00000
      7       1.4772      2.00000
      8       1.7084      2.00000
      9       1.7084      2.00000
     10       2.2733      2.00000
     11       2.6891      2.00000
     12       2.6891      2.00000
     13       3.5328      2.00000
     14       3.8155      2.00000
     15       4.1491      2.00000
     16       4.2180      2.00000
     17       7.3059      0.00000
     18       7.6584      0.00000
     19       8.9944      0.00000
     20       8.9944      0.00000
     21       9.0208      0.00000
     22       9.7162      0.00000
     23      10.2068      0.00000
     24      10.2068      0.00000
     25      10.5031      0.00000

 k-point    20 :       0.2222    0.2222    0.1111
  band No.  band energies     occupation 
      1      -5.6521      2.00000
      2      -3.3852      2.00000
      3      -3.3852      2.00000
      4      -2.6941      2.00000
      5      -1.1312      2.00000
      6      -0.3640      2.00000
      7      -0.3640      2.00000
      8       1.7815      2.00000
      9       2.3544      2.00000
     10       2.3544      2.00000
     11       3.0875      2.00000
     12       3.2350      2.00000
     13       3.2350      2.00000
     14       3.3630      2.00000
     15       4.8282      2.00000
     16       5.4875      2.00000
     17       7.0112      0.00000
     18       7.2494      0.00000
     19       7.2494      0.00000
     20       8.3631      0.00000
     21       8.7306      0.00000
     22       8.7306      0.00000
     23       8.9704      0.00000
     24       9.3195      0.00000
     25       9.4935      0.00000

 k-point    21 :       0.3333    0.2222    0.1111
  band No.  band energies     occupation 
      1      -5.3899      2.00000
      2      -4.0158      2.00000
      3      -3.2265      2.00000
      4      -2.7402      2.00000
      5      -1.1053      2.00000
      6      -0.5697      2.00000
      7       0.3622      2.00000
      8       1.6528      2.00000
      9       2.0847      2.00000
     10       2.3915      2.00000
     11       2.7637      2.00000
     12       3.1341      2.00000
     13       3.3860      2.00000
     14       3.5432      2.00000
     15       4.3170      2.00000
     16       5.1649      2.00000
     17       7.4774      0.00000
     18       7.4988      0.00000
     19       8.0738      0.00000
     20       8.4448      0.00000
     21       9.0550      0.00000
     22       9.1351      0.00000
     23       9.7770      0.00000
     24       9.8599      0.00000
     25      10.6102      0.00000

 k-point    22 :       0.4444    0.2222    0.1111
  band No.  band energies     occupation 
      1      -5.0266      2.00000
      2      -4.5663      2.00000
      3      -3.0382      2.00000
      4      -2.8607      2.00000
      5      -0.9961      2.00000
      6      -0.8019      2.00000
      7       1.0486      2.00000
      8       1.6977      2.00000
      9       1.7158      2.00000
     10       1.8611      2.00000
     11       3.1283      2.00000
     12       3.2470      2.00000
     13       3.2637      2.00000
     14       3.7889      2.00000
     15       4.0006      2.00000
     16       4.5841      2.00000
     17       7.8201      0.00000
     18       8.1761      0.00000
     19       8.3670      0.00000
     20       9.1305      0.00000
     21       9.5199      0.00000
     22       9.6249      0.00000
     23       9.6923      0.00000
     24      10.3759      0.00000
     25      10.4712      0.00000

 k-point    23 :       0.3333    0.3333    0.1111
  band No.  band energies     occupation 
      1      -5.1346      2.00000
      2      -3.8149      2.00000
      3      -3.8149      2.00000
      4      -2.9691      2.00000
      5      -0.9651      2.00000
      6      -0.0059      2.00000
      7      -0.0059      2.00000
      8       1.6621      2.00000
      9       1.7411      2.00000
     10       2.4410      2.00000
     11       2.4410      2.00000
     12       3.6132      2.00000
     13       3.6132      2.00000
     14       3.7579      2.00000
     15       3.8158      2.00000
     16       5.2160      2.00000
     17       7.4722      0.00000
     18       8.3187      0.00000
     19       8.3187      0.00000
     20       8.5738      0.00000
     21       9.3525      0.00000
     22       9.6415      0.00000
     23       9.9889      0.00000
     24       9.9899      0.00000
     25      10.2472      0.00000

 k-point    24 :       0.4444    0.3333    0.1111
  band No.  band energies     occupation 
      1      -4.7823      2.00000
      2      -4.3391      2.00000
      3      -3.5536      2.00000
      4      -3.2578      2.00000
      5      -0.7188      2.00000
      6      -0.3860      2.00000
      7       0.5500      2.00000
      8       1.1266      2.00000
      9       1.8297      2.00000
     10       2.1081      2.00000
     11       2.8553      2.00000
     12       3.3171      2.00000
     13       3.7387      2.00000
     14       3.8402      2.00000
     15       4.2281      2.00000
     16       4.8358      2.00000
     17       7.9948      0.00000
     18       8.6142      0.00000
     19       8.7383      0.00000
     20       8.9167      0.00000
     21       9.2046      0.00000
     22       9.3693      0.00000
     23       9.4573      0.00000
     24      10.3181      0.00000
     25      10.6057      0.00000

 k-point    25 :       0.4444    0.4444    0.1111
  band No.  band energies     occupation 
      1      -4.4477      2.00000
      2      -4.0329      2.00000
      3      -4.0329      2.00000
      4      -3.6636      2.00000
      5      -0.3620      2.00000
      6       0.0670      2.00000
      7       0.0670      2.00000
      8       0.5709      2.00000
      9       2.0880      2.00000
     10       2.4429      2.00000
     11       2.4429      2.00000
     12       2.8537      2.00000
     13       4.2540      2.00000
     14       4.3577      2.00000
     15       4.3577      2.00000
     16       4.7759      2.00000
     17       8.0314      0.00000
     18       8.5165      0.00000
     19       8.5494      0.00000
     20       8.5494      0.00000
     21       9.6590      0.00000
     22       9.6590      0.00000
     23       9.9463      0.00000
     24      10.0294      0.00000
     25      10.7929      0.00000

 k-point    26 :       0.2222    0.2222    0.2222
  band No.  band energies     occupation 
      1      -5.4965      2.00000
      2      -3.3120      2.00000
      3      -3.3120      2.00000
      4      -3.3120      2.00000
      5      -0.5540      2.00000
      6      -0.5540      2.00000
      7      -0.5540      2.00000
      8       2.1777      2.00000
      9       2.1777      2.00000
     10       2.1777      2.00000
     11       2.4103      2.00000
     12       3.4974      2.00000
     13       3.4974      2.00000
     14       3.4974      2.00000
     15       5.1720      2.00000
     16       5.1720      2.00000
     17       7.1977      0.00000
     18       7.1977      0.00000
     19       7.1977      0.00000
     20       7.9745      0.00000
     21       9.2863      0.00000
     22       9.2863      0.00000
     23       9.6964      0.00000
     24       9.6964      0.00000
     25       9.6964      0.00000

 k-point    27 :       0.3333    0.2222    0.2222
  band No.  band energies     occupation 
      1      -5.2391      2.00000
      2      -3.9063      2.00000
      3      -3.2182      2.00000
      4      -3.2182      2.00000
      5      -0.7792      2.00000
      6      -0.7792      2.00000
      7       0.0028      2.00000
      8       1.7438      2.00000
      9       2.1310      2.00000
     10       2.1310      2.00000
     11       2.7912      2.00000
     12       3.5456      2.00000
     13       3.5456      2.00000
     14       3.7172      2.00000
     15       4.7752      2.00000
     16       4.9585      2.00000
     17       7.4913      0.00000
     18       7.6541      0.00000
     19       7.6541      0.00000
     20       8.0926      0.00000
     21       9.1093      0.00000
     22       9.7197      0.00000
     23      10.0434      0.00000
     24      10.6763      0.00000
     25      10.6774      0.00000

 k-point    28 :       0.4444    0.2222    0.2222
  band No.  band energies     occupation 
      1      -4.8837      2.00000
      2      -4.4360      2.00000
      3      -3.1491      2.00000
      4      -3.1491      2.00000
      5      -0.9321      2.00000
      6      -0.9321      2.00000
      7       0.5513      2.00000
      8       1.1245      2.00000
      9       2.1475      2.00000
     10       2.1475      2.00000
     11       3.4893      2.00000
     12       3.4893      2.00000
     13       3.5389      2.00000
     14       4.0147      2.00000
     15       4.3141      2.00000
     16       4.3753      2.00000
     17       7.8534      0.00000
     18       8.1688      0.00000
     19       8.5200      0.00000
     20       8.5200      0.00000
     21       9.3476      0.00000
     22       9.6285      0.00000
     23       9.6285      0.00000
     24      10.1539      0.00000
     25      10.2383      0.00000

 k-point    29 :       0.3333    0.3333    0.2222
  band No.  band energies     occupation 
      1      -4.9907      2.00000
      2      -3.7389      2.00000
      3      -3.7389      2.00000
      4      -3.2509      2.00000
      5      -0.9413      2.00000
      6      -0.4018      2.00000
      7      -0.4018      2.00000
      8       1.1083      2.00000
      9       2.2702      2.00000
     10       2.7777      2.00000
     11       2.7777      2.00000
     12       3.8230      2.00000
     13       3.8230      2.00000
     14       3.8723      2.00000
     15       4.4584      2.00000
     16       5.0614      2.00000
     17       7.6425      0.00000
     18       7.9269      0.00000
     19       7.9269      0.00000
     20       7.9746      0.00000
     21       9.2958      0.00000
     22       9.5357      0.00000
     23      10.0906      0.00000
     24      10.0906      0.00000
     25      10.8852      0.00000

 k-point    30 :       0.4444    0.3333    0.2222
  band No.  band energies     occupation 
      1      -4.6503      2.00000
      2      -4.2273      2.00000
      3      -3.5422      2.00000
      4      -3.3625      2.00000
      5      -0.9367      2.00000
      6      -0.7410      2.00000
      7       0.0311      2.00000
      8       0.5336      2.00000
      9       2.4683      2.00000
     10       2.6626      2.00000
     11       3.4364      2.00000
     12       3.9038      2.00000
     13       3.9640      2.00000
     14       3.9941      2.00000
     15       4.2375      2.00000
     16       4.7414      2.00000
     17       8.1294      0.00000
     18       8.2209      0.00000
     19       8.2275      0.00000
     20       8.7147      0.00000
     21       9.0465      0.00000
     22       9.1595      0.00000
     23       9.4259      0.00000
     24       9.8103      0.00000
     25       9.8906      0.00000

 k-point    31 :       0.4444    0.4444    0.2222
  band No.  band energies     occupation 
      1      -4.3355      2.00000
      2      -3.9559      2.00000
      3      -3.9559      2.00000
      4      -3.6512      2.00000
      5      -0.7581      2.00000
      6      -0.4215      2.00000
      7      -0.4215      2.00000
      8       0.0092      2.00000
      9       2.8033      2.00000
     10       3.1416      2.00000
     11       3.1416      2.00000
     12       3.5832      2.00000
     13       4.3266      2.00000
     14       4.4058      2.00000
     15       4.4058      2.00000
     16       4.7633      2.00000
     17       8.1085      0.00000
     18       8.2469      0.00000
     19       8.4598      0.00000
     20       8.4598      0.00000
     21       9.1618      0.00000
     22       9.1618      0.00000
     23       9.4943      0.00000
     24       9.5656      0.00000
     25       9.9263      0.00000

 k-point    32 :       0.3333    0.3333    0.3333
  band No.  band energies     occupation 
      1      -4.7559      2.00000
      2      -3.6416      2.00000
      3      -3.6416      2.00000
      4      -3.6416      2.00000
      5      -0.7757      2.00000
      6      -0.7757      2.00000
      7      -0.7757      2.00000
      8       0.4963      2.00000
      9       3.0552      2.00000
     10       3.0552      2.00000
     11       3.0552      2.00000
     12       4.0556      2.00000
     13       4.0556      2.00000
     14       4.0556      2.00000
     15       4.8314      2.00000
     16       4.8314      2.00000
     17       7.6035      0.00000
     18       7.8874      0.00000
     19       7.8874      0.00000
     20       7.8874      0.00000
     21       9.3557      0.00000
     22       9.3557      0.00000
     23       9.9646      0.00000
     24       9.9646      0.00000
     25       9.9647      0.00000

 k-point    33 :       0.4444    0.3333    0.3333
  band No.  band energies     occupation 
      1      -4.4388      2.00000
      2      -4.0570      2.00000
      3      -3.5699      2.00000
      4      -3.5699      2.00000
      5      -0.9994      2.00000
      6      -0.9994      2.00000
      7      -0.4678      2.00000
      8      -0.0369      2.00000
      9       3.2125      2.00000
     10       3.2125      2.00000
     11       3.8770      2.00000
     12       4.1722      2.00000
     13       4.1722      2.00000
     14       4.2928      2.00000
     15       4.5623      2.00000
     16       4.5738      2.00000
     17       7.7915      0.00000
     18       8.0497      0.00000
     19       8.2576      0.00000
     20       8.2576      0.00000
     21       9.1408      0.00000
     22       9.1993      0.00000
     23       9.1993      0.00000
     24       9.2495      0.00000
     25       9.5763      0.00000

 k-point    34 :       0.4444    0.4444    0.3333
  band No.  band energies     occupation 
      1      -4.1642      2.00000
      2      -3.8575      2.00000
      3      -3.8575      2.00000
      4      -3.6780      2.00000
      5      -1.0409      2.00000
      6      -0.8476      2.00000
      7      -0.8476      2.00000
      8      -0.5119      2.00000
      9       3.6173      2.00000
     10       3.8668      2.00000
     11       3.8668      2.00000
     12       4.2973      2.00000
     13       4.4323      2.00000
     14       4.4688      2.00000
     15       4.4688      2.00000
     16       4.7270      2.00000
     17       7.7218      0.00000
[...]
     20       8.3188      0.00000
     21       9.1461      0.00000
     22       9.4301      0.00000
     23       9.7952      0.00000
     24       9.7954      0.00000
     25      10.0002      0.00000

 k-point    24 :       0.4444    0.3333    0.1111
  band No.  band energies     occupation 
      1      -4.8664      2.00000
      2      -4.4311      2.00000
      3      -3.6614      2.00000
      4      -3.3726      2.00000
      5      -0.8545      2.00000
      6      -0.5275      2.00000
      7       0.3980      2.00000
      8       0.9716      2.00000
      9       1.7124      2.00000
     10       1.9837      2.00000
     11       2.7153      2.00000
     12       3.1688      2.00000
     13       3.5879      2.00000
     14       3.6855      2.00000
     15       4.0654      2.00000
     16       4.6598      2.00000
     17       7.8084      0.00000
     18       8.4098      0.00000
     19       8.4962      0.00000
     20       8.7106      0.00000
     21       9.0010      0.00000
     22       9.1636      0.00000
     23       9.2337      0.00000
     24      10.0928      0.00000
     25      10.3408      0.00000

 k-point    25 :       0.4444    0.4444    0.1111
  band No.  band energies     occupation 
      1      -4.5381      2.00000
      2      -4.1312      2.00000
      3      -4.1312      2.00000
      4      -3.7698      2.00000
      5      -0.4999      2.00000
      6      -0.0764      2.00000
      7      -0.0764      2.00000
      8       0.4231      2.00000
      9       1.9636      2.00000
     10       2.3107      2.00000
     11       2.3107      2.00000
     12       2.7136      2.00000
     13       4.0898      2.00000
     14       4.1921      2.00000
     15       4.1921      2.00000
     16       4.6012      2.00000
     17       7.8383      0.00000
     18       8.2901      0.00000
     19       8.3370      0.00000
     20       8.3370      0.00000
     21       9.4496      0.00000
     22       9.4496      0.00000
     23       9.7360      0.00000
     24       9.8063      0.00000
     25      10.5662      0.00000

 k-point    26 :       0.2222    0.2222    0.2222
  band No.  band energies     occupation 
      1      -5.5680      2.00000
      2      -3.4229      2.00000
      3      -3.4229      2.00000
      4      -3.4229      2.00000
      5      -0.6999      2.00000
      6      -0.6999      2.00000
      7      -0.6999      2.00000
      8       2.0558      2.00000
      9       2.0558      2.00000
     10       2.0558      2.00000
     11       2.2472      2.00000
     12       3.3479      2.00000
     13       3.3479      2.00000
     14       3.3479      2.00000
     15       4.9927      2.00000
     16       4.9927      2.00000
     17       7.0311      0.00000
     18       7.0311      0.00000
     19       7.0311      0.00000
     20       7.7188      0.00000
     21       9.0782      0.00000
     22       9.0782      0.00000
     23       9.4967      0.00000
     24       9.4967      0.00000
     25       9.4967      0.00000

 k-point    27 :       0.3333    0.2222    0.2222
  band No.  band energies     occupation 
      1      -5.3151      2.00000
      2      -4.0061      2.00000
      3      -3.3331      2.00000
      4      -3.3331      2.00000
      5      -0.9143      2.00000
      6      -0.9143      2.00000
      7      -0.1439      2.00000
      8       1.5886      2.00000
      9       2.0057      2.00000
     10       2.0057      2.00000
     11       2.6507      2.00000
     12       3.3971      2.00000
     13       3.3971      2.00000
     14       3.5641      2.00000
     15       4.6037      2.00000
     16       4.7776      2.00000
     17       7.3165      0.00000
     18       7.4774      0.00000
     19       7.4774      0.00000
     20       7.8411      0.00000
     21       8.9042      0.00000
     22       9.5088      0.00000
     23       9.8405      0.00000
     24      10.4775      0.00000
     25      10.4775      0.00000

 k-point    28 :       0.4444    0.2222    0.2222
  band No.  band energies     occupation 
      1      -4.9659      2.00000
      2      -4.5262      2.00000
      3      -3.2673      2.00000
      4      -3.2673      2.00000
      5      -1.0598      2.00000
      6      -1.0598      2.00000
      7       0.4039      2.00000
      8       0.9745      2.00000
      9       2.0186      2.00000
     10       2.0186      2.00000
     11       3.3446      2.00000
     12       3.3446      2.00000
     13       3.3796      2.00000
     14       3.8567      2.00000
     15       4.1400      2.00000
     16       4.2111      2.00000
     17       7.6650      0.00000
     18       7.9537      0.00000
     19       8.3262      0.00000
     20       8.3262      0.00000
     21       9.1108      0.00000
     22       9.4155      0.00000
     23       9.4155      0.00000
     24       9.8869      0.00000
     25      10.0231      0.00000

 k-point    29 :       0.3333    0.3333    0.2222
  band No.  band energies     occupation 
      1      -5.0713      2.00000
      2      -3.8434      2.00000
      3      -3.8434      2.00000
      4      -3.3675      2.00000
      5      -1.0649      2.00000
      6      -0.5352      2.00000
      7      -0.5352      2.00000
      8       0.9627      2.00000
      9       2.1385      2.00000
     10       2.6336      2.00000
     11       2.6336      2.00000
     12       3.6691      2.00000
     13       3.6691      2.00000
     14       3.7156      2.00000
     15       4.2890      2.00000
     16       4.8813      2.00000
     17       7.4631      0.00000
     18       7.7181      0.00000
     19       7.7406      0.00000
     20       7.7406      0.00000
     21       9.0975      0.00000
     22       9.3339      0.00000
     23       9.8627      0.00000
     24       9.8627      0.00000
     25      10.6315      0.00000

 k-point    30 :       0.4444    0.3333    0.2222
  band No.  band energies     occupation 
      1      -4.7372      2.00000
      2      -4.3223      2.00000
      3      -3.6523      2.00000
      4      -3.4775      2.00000
      5      -1.0564      2.00000
      6      -0.8647      2.00000
      7      -0.1035      2.00000
      8       0.3949      2.00000
      9       2.3303      2.00000
     10       2.5196      2.00000
     11       3.2791      2.00000
     12       3.7492      2.00000
     13       3.8068      2.00000
     14       3.8300      2.00000
     15       4.0739      2.00000
     16       4.5663      2.00000
     17       7.9346      0.00000
     18       7.9790      0.00000
     19       8.0127      0.00000
     20       8.4938      0.00000
     21       8.8563      0.00000
     22       8.9637      0.00000
     23       9.2041      0.00000
     24       9.5929      0.00000
     25       9.6850      0.00000

 k-point    31 :       0.4444    0.4444    0.2222
  band No.  band energies     occupation 
      1      -4.4288      2.00000
      2      -4.0572      2.00000
      3      -4.0572      2.00000
      4      -3.7597      2.00000
      5      -0.8778      2.00000
      6      -0.5468      2.00000
      7      -0.5468      2.00000
      8      -0.1213      2.00000
      9       2.6582      2.00000
     10       2.9901      2.00000
     11       2.9901      2.00000
     12       3.4253      2.00000
     13       4.1606      2.00000
     14       4.2386      2.00000
     15       4.2386      2.00000
     16       4.5882      2.00000
     17       7.9025      0.00000
     18       7.9987      0.00000
     19       8.2225      0.00000
     20       8.2225      0.00000
     21       8.9755      0.00000
     22       8.9755      0.00000
     23       9.2968      0.00000
     24       9.3702      0.00000
     25       9.6950      0.00000

 k-point    32 :       0.3333    0.3333    0.3333
  band No.  band energies     occupation 
      1      -4.8411      2.00000
      2      -3.7501      2.00000
      3      -3.7501      2.00000
      4      -3.7501      2.00000
      5      -0.8953      2.00000
      6      -0.8953      2.00000
      7      -0.8953      2.00000
      8       0.3616      2.00000
      9       2.9035      2.00000
     10       2.9035      2.00000
     11       2.9035      2.00000
     12       3.8955      2.00000
     13       3.8955      2.00000
     14       3.8955      2.00000
     15       4.6559      2.00000
     16       4.6559      2.00000
     17       7.3466      0.00000
     18       7.6943      0.00000
     19       7.6943      0.00000
     20       7.6943      0.00000
     21       9.1617      0.00000
     22       9.1617      0.00000
     23       9.7240      0.00000
     24       9.7240      0.00000
     25       9.7240      0.00000

 k-point    33 :       0.4444    0.3333    0.3333
  band No.  band energies     occupation 
      1      -4.5304      2.00000
      2      -4.1566      2.00000
      3      -3.6817      2.00000
      4      -3.6817      2.00000
      5      -1.1110      2.00000
      6      -1.1110      2.00000
      7      -0.5890      2.00000
      8      -0.1635      2.00000
      9       3.0569      2.00000
     10       3.0569      2.00000
     11       3.7095      2.00000
     12       4.0103      2.00000
     13       4.0103      2.00000
     14       4.1280      2.00000
     15       4.3922      2.00000
     16       4.3978      2.00000
     17       7.5368      0.00000
     18       7.8231      0.00000
     19       8.0373      0.00000
     20       8.0373      0.00000
     21       8.9536      0.00000
     22       9.0001      0.00000
     23       9.0001      0.00000
     24       9.0398      0.00000
     25       9.3820      0.00000

 k-point    34 :       0.4444    0.4444    0.3333
  band No.  band energies     occupation 
      1      -4.2622      2.00000
      2      -3.9628      2.00000
      3      -3.9628      2.00000
      4      -3.7882      2.00000
      5      -1.1487      2.00000
      6      -0.9594      2.00000
      7      -0.9594      2.00000
      8      -0.6294      2.00000
      9       3.4556      2.00000
     10       3.7011      2.00000
     11       3.7011      2.00000
     12       4.1277      2.00000
     13       4.2636      2.00000
     14       4.2996      2.00000
     15       4.2996      2.00000
     16       4.5520      2.00000
     17       7.4654      0.00000
     18       7.8028      0.00000
     19       7.8028      0.00000
     20       7.8194      0.00000
     21       8.8861      0.00000
     22       8.8861      0.00000
     23       9.0704      0.00000
     24       9.1058      0.00000
     25       9.1165      0.00000

 k-point    35 :       0.4444    0.4444    0.4444
  band No.  band energies     occupation 
      1      -4.0678      2.00000
      2      -3.8933      2.00000
      3      -3.8933      2.00000
      4      -3.8933      2.00000
      5      -1.1975      2.00000
      6      -1.1975      2.00000
      7      -1.1975      2.00000
      8      -1.0091      2.00000
      9       4.1704      2.00000
     10       4.1704      2.00000
     11       4.1704      2.00000
     12       4.3791      2.00000
     13       4.3791      2.00000
     14       4.3791      2.00000
     15       4.4814      2.00000
     16       4.4814      2.00000
     17       7.1470      0.00000
     18       7.4023      0.00000
     19       7.4023      0.00000
     20       7.4023      0.00000
     21       8.9480      0.00000
     22       8.9480      0.00000
     23       8.9480      0.00000
     24       9.0339      0.00000
     25       9.0339      0.00000


--------------------------------------------------------------------------------------------------------


 soft charge-density along one line, spin component           1
         0         1         2         3         4         5         6         7         8         9
 total charge-density along one line
 
 pseudopotential strength for first ion, spin component:           1
 18.438  25.724  -0.000   0.000  -0.000  -0.000   0.000  -0.000
 25.724  35.894  -0.000   0.000  -0.000  -0.000   0.000  -0.000
 -0.000  -0.000   4.181   0.000   0.000   7.792   0.000   0.000
  0.000   0.000   0.000   4.181  -0.000   0.000   7.792  -0.000
 -0.000  -0.000   0.000  -0.000   4.181   0.000  -0.000   7.792
 -0.000  -0.000   7.792   0.000   0.000  14.530   0.000   0.000
  0.000   0.000   0.000   7.792  -0.000   0.000  14.530  -0.000
 -0.000  -0.000   0.000  -0.000   7.792   0.000  -0.000  14.530
 total augmentation occupancy for first ion, spin component:           1
  6.049  -2.339  -0.000   0.000   0.000  -0.000  -0.000   0.000
 -2.339   1.013  -0.000   0.000  -0.000   0.000  -0.000  -0.000
 -0.000  -0.000   3.396   0.000   0.000  -0.839  -0.000  -0.000
  0.000   0.000   0.000   3.396   0.000  -0.000  -0.839   0.000
 -0.000  -0.000   0.000   0.000   3.396   0.000   0.000  -0.839
 -0.000  -0.000  -0.839  -0.000   0.000   0.215   0.000  -0.000
 -0.000   0.000  -0.000  -0.839   0.000   0.000   0.215  -0.000
  0.000   0.000  -0.000   0.000  -0.839   0.000  -0.000   0.215


------------------------ aborting loop because EDIFF is reached ----------------------------------------


    CHARGE:  cpu time    0.0135: real time    0.0136
    FORLOC:  cpu time    0.0003: real time    0.0003
    FORNL :  cpu time    0.0226: real time    0.0247
    STRESS:  cpu time    0.0471: real time    0.0473
    FORCOR:  cpu time    0.0043: real time    0.0043
    FORHAR:  cpu time    0.0012: real time    0.0012
    MIXING:  cpu time    0.0005: real time    0.0005
    OFIELD:  cpu time    0.0000: real time    0.0000

  FORCE on cell =-STRESS in cart. coord.  units (eV):
  Direction    XX          YY          ZZ          XY          YZ          ZX
  --------------------------------------------------------------------------------------
  Alpha Z    13.19646    13.19646    13.19646
  Ewald    -302.77541  -302.77541  -302.77541    -0.00000    -0.00000     0.00000
  Hartree    20.18600    20.18600    20.18600    -0.00000    -0.00000    -0.00000
  E(xc)    -101.11343  -101.11343  -101.11343    -0.00000    -0.00000     0.00000
  Local    -118.52875  -118.52875  -118.52875     0.00000    -0.00000     0.00000
  n-local   310.55811   313.96942   307.44410    -2.96638    -2.25438    -1.52807
  augment   -46.42154   -46.42154   -46.42154     0.00000    -0.00000     0.00000
  Kinetic   217.65573   229.26891   227.41077    -3.76875    -5.13149    -2.58295
  Fock        0.00000     0.00000     0.00000     0.00000     0.00000     0.00000
  -------------------------------------------------------------------------------------
  Total      -0.02098    -0.02098    -0.02098     0.00000     0.00000    -0.00000
  in kB      -0.20590    -0.20590    -0.20590     0.00000     0.00000    -0.00000
  external pressure =       -0.21 kB  Pullay stress =        0.00 kB


 VOLUME and BASIS-vectors are now :
 -----------------------------------------------------------------------------
  energy-cutoff  :      240.00
  volume of cell :      163.26
      direct lattice vectors                 reciprocal lattice vectors
     5.465446565  0.000000000 -0.000000000     0.182967666  0.000000000  0.000000000
    -0.000000000  5.465446565  0.000000000    -0.000000000  0.182967666 -0.000000000
    -0.000000000  0.000000000  5.465446565     0.000000000 -0.000000000  0.182967666

  length of vectors
     5.465446565  5.465446565  5.465446565     0.182967666  0.182967666  0.182967666


 FORCES acting on ions
    electron-ion (+dipol)            ewald-force                    non-local-force                 convergence-correction
 -----------------------------------------------------------------------------------------------
   0.267E-13 -.120E-14 0.188E-14   0.711E-14 -.711E-14 0.355E-14   0.174E-16 -.781E-17 0.208E-16   -.675E-15 0.180E-14 0.503E-14
   0.265E-13 -.140E-13 -.102E-13   0.711E-14 -.711E-14 0.000E+00   -.191E-16 -.291E-16 0.538E-16   -.266E-15 -.567E-15 -.641E-14
   0.626E-14 -.949E-15 0.347E-12   0.711E-14 -.711E-14 0.000E+00   0.156E-16 0.195E-16 0.260E-16   0.111E-14 0.239E-14 -.623E-14
   0.403E-14 0.126E-12 0.176E-12   0.711E-14 -.711E-14 0.355E-14   0.868E-17 -.867E-18 0.347E-16   0.553E-15 -.102E-14 0.529E-14
   -.356E-13 0.109E-12 -.976E-14   -.109E-13 0.644E-14 -.473E-14   -.278E-16 -.390E-17 -.356E-16   -.217E-14 -.107E-14 -.288E-14
   -.518E-13 -.319E-12 0.392E-12   -.102E-13 0.786E-14 -.473E-14   0.867E-17 0.169E-16 -.286E-16   0.854E-15 0.382E-15 -.279E-14
   -.510E-13 -.108E-12 0.144E-12   -.104E-13 0.634E-14 -.248E-14   -.434E-17 0.607E-17 -.598E-16   0.402E-15 -.177E-14 0.116E-13
   -.342E-13 0.779E-13 -.143E-13   -.110E-13 0.776E-14 -.248E-14   -.113E-16 0.121E-16 -.373E-16   -.270E-14 0.165E-15 0.118E-13
 -----------------------------------------------------------------------------------------------
   -.109E-12 -.130E-12 0.103E-11   -.140E-13 -.193E-16 -.732E-14   -.121E-16 0.130E-16 -.260E-16   -.289E-14 0.308E-15 0.154E-13
 
 
 POSITION                                       TOTAL-FORCE (eV/Angst)
 -----------------------------------------------------------------------------------
     -0.00000     -0.00000     -0.00000         0.000000      0.000000      0.000000
     -0.00000      2.73272      2.73272         0.000000      0.000000      0.000000
      2.73272      0.00000      2.73272        -0.000000     -0.000000     -0.000000
      2.73272      2.73272      0.00000         0.000000      0.000000     -0.000000
      1.36636      1.36636      1.36636        -0.000000     -0.000000     -0.000000
      4.09908      4.09908      1.36636        -0.000000     -0.000000     -0.000000
      4.09908      1.36636      4.09908        -0.000000     -0.000000     -0.000000
      1.36636      4.09908      4.09908         0.000000      0.000000      0.000000
 -----------------------------------------------------------------------------------
    total drift:                               -0.000000     -0.000000      0.000000


--------------------------------------------------------------------------------------------------------



  FREE ENERGIE OF THE ION-ELECTRON SYSTEM (eV)
  ---------------------------------------------------
  free  energy   TOTEN  =       -43.29531299 eV

  energy  without entropy=      -43.29531294  energy(sigma->0) =      -43.29531297
 
 d Force = 0.0000000E+00[ 0.000E+00, 0.000E+00]  d Energy = 0.8353674E-01-0.835E-01
 d Force = 0.0000000E+00[ 0.000E+00, 0.000E+00]  d Ewald  = 0.1301543E+02-0.130E+02


--------------------------------------------------------------------------------------------------------


    POTLOK:  cpu time    0.0053: real time    0.0053


--------------------------------------------------------------------------------------------------------




--------------------------------------------------------------------------------------------------------


  
 reached required accuracy - stopping structural energy minimisation
 writing wavefunctions
     LOOP+:  cpu time    2.4945: real time    2.6068
    4ORBIT:  cpu time    0.0000: real time    0.0000

 total amount of memory used by VASP on root node    31507. kBytes
========================================================================

   base      :      30000. kBytes
   nonl-proj :        414. kBytes
   fftplans  :        243. kBytes
   grid      :        329. kBytes
   one-center:          3. kBytes
   wavefun   :        518. kBytes
 
  
  
 General timing and accounting informations for this job:
 ========================================================
  
                  Total CPU time used (sec):        9.217
                            User time (sec):        8.728
                          System time (sec):        0.490
                         Elapsed time (sec):        9.944
  
                   Maximum memory used (kb):      128904.
                   Average memory used (kb):           0.
  
                          Minor page faults:        22610
                          Major page faults:            0
                 Voluntary context switches:         1619
