<?xml version="1.0" encoding="ISO-8859-1"?>
<modeling>
 <generator>
  <i name="program" type="string">vasp </i>
  <i name="version" type="string">5.4.1  </i>
  <i name="subversion" type="string">05Feb16 (build Feb 24 2020 14:33:01) complex                          parallel </i>
  <i name="platform" type="string">IFC91_ompi </i>
  <i name="date" type="string">2020 02 27 </i>
  <i name="time" type="string">21:52:10 </i>
 </generator>
 <incar>
  <i type="string" name="SYSTEM"> diamond Si</i>
  <i type="int" name="ISTART">     0</i>
  <i type="string" name="PREC">accurate</i>
  <i type="int" name="NSIM">     4</i>
  <i type="int" name="ICHARG">     2</i>
  <i type="int" name="NELM">    60</i>
  <i type="int" name="NELMDL">     3</i>
  <i type="int" name="NELMIN">     0</i>
  <i type="int" name="IBRION">     2</i>
  <i name="EDIFF">      0.00010000</i>
  <i name="EDIFFG">     -0.01000000</i>
  <i type="int" name="NSW">     9</i>
  <i type="int" name="ISIF">     3</i>
  <i name="ENCUT">    240.00000000</i>
  <i name="POTIM">      1.00000000</i>
  <i type="logical" name="LPLANE"> F  </i>
  <i type="int" name="ISMEAR">     0</i>
  <i name="SIGMA">      0.10000000</i>
  <v type="int" name="KPOINT_BSE">    -1     0     0     0</v>
  <i type="int" name="NELM">    60</i>
 </incar>
 <kpoints>
  <generation param="Monkhorst-Pack">
   <v type="int" name="divisions">       9        9        9 </v>
   <v name="usershift">      0.00000000       0.00000000       0.00000000 </v>
   <v name="genvec1">      0.11111111       0.00000000       0.00000000 </v>
   <v name="genvec2">      0.00000000       0.11111111       0.00000000 </v>
   <v name="genvec3">      0.00000000       0.00000000       0.11111111 </v>
   <v name="shift">      0.00000000       0.00000000       0.00000000 </v>
  </generation>
  <varray name="kpointlist" >
   <v>       0.00000000       0.00000000       0.00000000 </v>
   <v>       0.11111111       0.00000000       0.00000000 </v>
   <v>       0.22222222       0.00000000       0.00000000 </v>
   <v>       0.33333333       0.00000000       0.00000000 </v>
   <v>       0.44444444       0.00000000       0.00000000 </v>
   <v>       0.11111111       0.11111111       0.00000000 </v>
   <v>       0.22222222       0.11111111       0.00000000 </v>
   <v>       0.33333333       0.11111111       0.00000000 </v>
   <v>       0.44444444       0.11111111       0.00000000 </v>
   <v>       0.22222222       0.22222222       0.00000000 </v>
   <v>       0.33333333       0.22222222       0.00000000 </v>
   <v>       0.44444444       0.22222222       0.00000000 </v>
   <v>       0.33333333       0.33333333       0.00000000 </v>
   <v>       0.44444444       0.33333333       0.00000000 </v>
   <v>       0.44444444       0.44444444       0.00000000 </v>
   <v>       0.11111111       0.11111111       0.11111111 </v>
   <v>       0.22222222       0.11111111       0.11111111 </v>
   <v>       0.33333333       0.11111111       0.11111111 </v>
   <v>       0.44444444       0.11111111       0.11111111 </v>
   <v>       0.22222222       0.22222222       0.11111111 </v>
   <v>       0.33333333       0.22222222       0.11111111 </v>
   <v>       0.44444444       0.22222222       0.11111111 </v>
   <v>       0.33333333       0.33333333       0.11111111 </v>
   <v>       0.44444444       0.33333333       0.11111111 </v>
   <v>       0.44444444       0.44444444       0.11111111 </v>
   <v>       0.22222222       0.22222222       0.22222222 </v>
   <v>       0.33333333       0.22222222       0.22222222 </v>
   <v>       0.44444444       0.22222222       0.22222222 </v>
   <v>       0.33333333       0.33333333       0.22222222 </v>
   <v>       0.44444444       0.33333333       0.22222222 </v>
   <v>       0.44444444       0.44444444       0.22222222 </v>
   <v>       0.33333333       0.33333333       0.33333333 </v>
   <v>       0.44444444       0.33333333       0.33333333 </v>
   <v>       0.44444444       0.44444444       0.33333333 </v>
   <v>       0.44444444       0.44444444       0.44444444 </v>
  </varray>
  <varray name="weights" >
   <v>       0.00137174 </v>
   <v>       0.00823045 </v>
   <v>       0.00823045 </v>
   <v>       0.00823045 </v>
   <v>       0.00823045 </v>
   <v>       0.01646091 </v>
   <v>       0.03292181 </v>
   <v>       0.03292181 </v>
   <v>       0.03292181 </v>
   <v>       0.01646091 </v>
   <v>       0.03292181 </v>
   <v>       0.03292181 </v>
   <v>       0.01646091 </v>
   <v>       0.03292181 </v>
   <v>       0.01646091 </v>
   <v>       0.01097394 </v>
   <v>       0.03292181 </v>
   <v>       0.03292181 </v>
   <v>       0.03292181 </v>
   <v>       0.03292181 </v>
   <v>       0.06584362 </v>
   <v>       0.06584362 </v>
   <v>       0.03292181 </v>
   <v>       0.06584362 </v>
   <v>       0.03292181 </v>
   <v>       0.01097394 </v>
   <v>       0.03292181 </v>
   <v>       0.03292181 </v>
   <v>       0.03292181 </v>
   <v>       0.06584362 </v>
   <v>       0.03292181 </v>
   <v>       0.01097394 </v>
   <v>       0.03292181 </v>
   <v>       0.03292181 </v>
   <v>       0.01097394 </v>
  </varray>
 </kpoints>
 <parameters>
  <separator name="general" >
   <i type="string" name="SYSTEM">diamond Si</i>
   <i type="logical" name="LCOMPAT"> F  </i>
  </separator>
  <separator name="electronic" >
   <i type="string" name="PREC">accura</i>
   <i name="ENMAX">    240.00000000</i>
   <i name="ENAUG">    322.06900000</i>
   <i name="EDIFF">      0.00010000</i>
   <i type="int" name="IALGO">    38</i>
   <i type="int" name="IWAVPR">    11</i>
   <i type="int" name="NBANDS">    25</i>
   <i name="NELECT">     32.00000000</i>
   <i type="int" name="TURBO">     0</i>
   <i type="int" name="IRESTART">     0</i>
   <i type="int" name="NREBOOT">     0</i>
   <i type="int" name="NMIN">     0</i>
   <i name="EREF">      0.00000000</i>
   <separator name="electronic smearing" >
    <i type="int" name="ISMEAR">     0</i>
    <i name="SIGMA">      0.10000000</i>
    <i name="KSPACING">      0.50000000</i>
    <i type="logical" name="KGAMMA"> T  </i>
   </separator>
   <separator name="electronic projectors" >
    <i type="logical" name="LREAL"> F  </i>
    <v name="ROPT">      0.00000000</v>
    <i type="int" name="LMAXPAW">  -100</i>
    <i type="int" name="LMAXMIX">     2</i>
    <i type="logical" name="NLSPLINE"> F  </i>
   </separator>
   <separator name="electronic startup" >
    <i type="int" name="ISTART">     0</i>
    <i type="int" name="ICHARG">     2</i>
    <i type="int" name="INIWAV">     1</i>
   </separator>
   <separator name="electronic spin" >
    <i type="int" name="ISPIN">     1</i>
    <i type="logical" name="LNONCOLLINEAR"> F  </i>
    <v name="MAGMOM">      1.00000000      1.00000000      1.00000000      1.00000000      1.00000000      1.00000000      1.00000000      1.00000000</v>
    <i name="NUPDOWN">     -1.00000000</i>
    <i type="logical" name="LSORBIT"> F  </i>
    <v name="SAXIS">      0.00000000      0.00000000      1.00000000</v>
    <i type="logical" name="LSPIRAL"> F  </i>
    <v name="QSPIRAL">      0.00000000      0.00000000      0.00000000</v>
    <i type="logical" name="LZEROZ"> F  </i>
   </separator>
   <separator name="electronic exchange-correlation" >
    <i type="logical" name="LASPH"> F  </i>
    <i type="logical" name="LMETAGGA"> F  </i>
   </separator>
   <separator name="electronic convergence" >
    <i type="int" name="NELM">    60</i>
    <i type="int" name="NELMDL">     3</i>
    <i type="int" name="NELMIN">     0</i>
    <i name="ENINI">    240.00000000</i>
    <separator name="electronic convergence detail" >
     <i type="logical" name="LDIAG"> T  </i>
     <i type="logical" name="LSUBROT"> F  </i>
     <i name="WEIMIN">      0.00100000</i>
     <i name="EBREAK">      0.00000100</i>
     <i name="DEPER">      0.30000000</i>
     <i type="int" name="NRMM">     4</i>
     <i name="TIME">      0.40000000</i>
    </separator>
   </separator>
   <separator name="electronic mixer" >
    <i name="AMIX">      0.40000000</i>
    <i name="BMIX">      1.00000000</i>
    <i name="AMIN">      0.10000000</i>
    <i name="AMIX_MAG">      1.60000000</i>
    <i name="BMIX_MAG">      1.00000000</i>
    <separator name="electronic mixer details" >
     <i type="int" name="IMIX">     4</i>
     <i type="logical" name="MIXFIRST"> F  </i>
     <i type="int" name="MAXMIX">   -45</i>
     <i name="WC">    100.00000000</i>
     <i type="int" name="INIMIX">     1</i>
     <i type="int" name="MIXPRE">     1</i>
     <i type="int" name="MREMOVE">     5</i>
    </separator>
   </separator>
   <separator name="electronic dipolcorrection" >
    <i type="logical" name="LDIPOL"> F  </i>
    <i type="logical" name="LMONO"> F  </i>
    <i type="int" name="IDIPOL">     0</i>
    <i name="EPSILON">      1.00000000</i>
    <v name="DIPOL">   -100.00000000   -100.00000000   -100.00000000</v>
    <i name="EFIELD">      0.00000000</i>
   </separator>
  </separator>
  <separator name="grids" >
   <i type="int" name="NGX">    28</i>
   <i type="int" name="NGY">    28</i>
   <i type="int" name="NGZ">    28</i>
   <i type="int" name="NGXF">    56</i>
   <i type="int" name="NGYF">    56</i>
   <i type="int" name="NGZF">    56</i>
   <i type="logical" name="ADDGRID"> F  </i>
  </separator>
  <separator name="ionic" >
   <i type="int" name="NSW">     9</i>
   <i type="int" name="IBRION">     2</i>
   <i type="int" name="ISIF">     3</i>
   <i name="PSTRESS">      0.00000000</i>
   <i name="EDIFFG">     -0.01000000</i>
   <i type="int" name="NFREE">     1</i>
   <i name="POTIM">      1.00000000</i>
   <i name="SMASS">     -3.00000000</i>
   <i name="SCALEE">      1.00000000</i>
  </separator>
  <separator name="ionic md" >
   <i name="TEBEG">      0.00010000</i>
   <i name="TEEND">      0.00010000</i>
   <i type="int" name="NBLOCK">     1</i>
   <i type="int" name="KBLOCK">     9</i>
   <i type="int" name="NPACO">   256</i>
   <i name="APACO">     16.00000000</i>
  </separator>
  <separator name="symmetry" >
   <i type="int" name="ISYM">     2</i>
   <i name="SYMPREC">      0.00001000</i>
  </separator>
  <separator name="dos" >
   <i type="logical" name="LORBIT"> F  </i>
   <v name="RWIGS">     -1.00000000</v>
   <i type="int" name="NEDOS">   301</i>
   <i name="EMIN">     10.00000000</i>
   <i name="EMAX">    -10.00000000</i>
   <i name="EFERMI">      0.00000000</i>
  </separator>
  <separator name="writing" >
   <i type="int" name="NWRITE">     2</i>
   <i type="logical" name="LWAVE"> T  </i>
   <i type="logical" name="LCHARG"> T  </i>
   <i type="logical" name="LPARD"> F  </i>
   <i type="logical" name="LVTOT"> F  </i>
   <i type="logical" name="LVHAR"> F  </i>
   <i type="logical" name="LELF"> F  </i>
   <i type="logical" name="LOPTICS"> F  </i>
   <v name="STM">      0.00000000      0.00000000      0.00000000      0.00000000      0.00000000      0.00000000      0.00000000</v>
  </separator>
  <separator name="performance" >
   <i type="int" name="NPAR">     5</i>
   <i type="int" name="NSIM">     4</i>
   <i type="int" name="NBLK">    -1</i>
   <i type="logical" name="LPLANE"> F  </i>
   <i type="logical" name="LSCALAPACK"> T  </i>
   <i type="logical" name="LSCAAWARE"> F  </i>
   <i type="logical" name="LSCALU"> F  </i>
   <i type="logical" name="LASYNC"> F  </i>
   <i type="logical" name="LORBITALREAL"> F  </i>
  </separator>
  <separator name="miscellaneous" >
   <i type="int" name="IDIOT">     3</i>
   <i type="logical" name="LMUSIC"> F  </i>
   <v name="POMASS">     28.08500000</v>
   <v name="DARWINR">      0.00000000</v>
   <v name="DARWINV">      1.00000000</v>
   <i type="logical" name="LCORR"> T  </i>
  </separator>
  <i type="logical" name="GGA_COMPAT"> T  </i>
  <i type="logical" name="LBERRY"> F  </i>
  <i type="int" name="ICORELEVEL">     0</i>
  <i type="logical" name="LDAU"> F  </i>
  <i type="int" name="I_CONSTRAINED_M">     0</i>
  <separator name="electronic exchange-correlation" >
   <i type="string" name="GGA">--</i>
   <i type="int" name="VOSKOWN">     0</i>
   <i type="logical" name="LHFCALC"> F  </i>
   <i type="string" name="PRECFOCK"></i>
   <i type="logical" name="LSYMGRAD"> F  </i>
   <i type="logical" name="LHFONE"> F  </i>
   <i type="logical" name="LRHFCALC"> F  </i>
   <i type="logical" name="LTHOMAS"> F  </i>
   <i type="logical" name="LMODELHF"> F  </i>
   <i name="ENCUT4O">     -1.00000000</i>
   <i type="int" name="EXXOEP">     0</i>
   <i type="int" name="FOURORBIT">     0</i>
   <i name="AEXX">      0.00000000</i>
   <i name="HFALPHA">      0.00000000</i>
   <i name="MCALPHA">      0.00000000</i>
   <i name="ALDAX">      1.00000000</i>
   <i name="AGGAX">      1.00000000</i>
   <i name="ALDAC">      1.00000000</i>
   <i name="AGGAC">      1.00000000</i>
   <i type="int" name="NKREDX">     1</i>
   <i type="int" name="NKREDY">     1</i>
   <i type="int" name="NKREDZ">     1</i>
   <i type="logical" name="SHIFTRED"> F  </i>
   <i type="logical" name="ODDONLY"> F  </i>
   <i type="logical" name="EVENONLY"> F  </i>
   <i type="int" name="LMAXFOCK">     0</i>
   <i type="int" name="NMAXFOCKAE">     0</i>
   <i type="logical" name="LFOCKAEDFT"> F  </i>
   <i name="HFSCREEN">      0.00000000</i>
   <i name="HFSCREENC">      0.00000000</i>
   <i type="int" name="NBANDSGWLOW">     0</i>
  </separator>
  <separator name="vdW DFT" >
   <i type="logical" name="LUSE_VDW"> F  </i>
   <i name="Zab_VDW">     -0.84910000</i>
   <i name="PARAM1">      0.12340000</i>
   <i name="PARAM2">      1.00000000</i>
   <i name="PARAM3">      0.00000000</i>
  </separator>
  <separator name="model GW" >
   <i type="int" name="MODEL_GW">     0</i>
   <i name="MODEL_EPS0">     12.01436085</i>
   <i name="MODEL_ALPHA">      1.00000000</i>
  </separator>
  <separator name="linear response parameters" >
   <i type="logical" name="LEPSILON"> F  </i>
   <i type="logical" name="LRPA"> F  </i>
   <i type="logical" name="LNABLA"> F  </i>
   <i type="logical" name="LVEL"> F  </i>
   <i type="int" name="KINTER">     0</i>
   <i name="CSHIFT">      0.10000000</i>
   <i name="OMEGAMAX">     -1.00000000</i>
   <i name="DEG_THRESHOLD">      0.00200000</i>
  </separator>
  <separator name="orbital magnetization" >
   <i type="logical" name="NUCIND"> F  </i>
   <v name="MAGPOS">      0.00000000      0.00000000      0.00000000</v>
   <i type="logical" name="LNICSALL"> T  </i>
   <i type="logical" name="ORBITALMAG"> F  </i>
   <i type="logical" name="LMAGBLOCH"> F  </i>
   <i type="logical" name="LCHIMAG"> F  </i>
   <i type="logical" name="LGAUGE"> T  </i>
   <i type="int" name="MAGATOM">     0</i>
   <v name="MAGDIPOL">      0.00000000      0.00000000      0.00000000</v>
   <v name="AVECCONST">      0.00000000      0.00000000      0.00000000</v>
  </separator>
  <separator name="response functions" >
   <i type="logical" name="LADDER"> F  </i>
   <i type="logical" name="LFXC"> F  </i>
   <i type="logical" name="LHARTREE"> T  </i>
   <i type="int" name="IBSE">     0</i>
   <v type="int" name="KPOINT">    -1     0     0     0</v>
   <i type="logical" name="LTCTE"> F  </i>
   <i type="logical" name="LTETE"> F  </i>
   <i type="logical" name="LTRIPLET"> F  </i>
   <i type="logical" name="LFXCEPS"> F  </i>
   <i type="logical" name="LFXHEG"> F  </i>
   <i type="int" name="NATURALO">     0</i>
   <i type="logical" name="L2ORDER"> F  </i>
   <i type="logical" name="LUSEW"> F  </i>
   <i name="ENCUTGW">     -2.00000000</i>
   <i name="ENCUTGWSOFT">     -2.00000000</i>
   <i name="ENCUTLF">     -1.00000000</i>
   <i type="int" name="LMAXMP2">    -1</i>
   <i name="SCISSOR">      0.00000000</i>
   <i type="int" name="NOMEGA">     0</i>
   <i type="int" name="NOMEGAR">     0</i>
   <i type="int" name="NBANDSGW">    -1</i>
   <i type="int" name="NBANDSO">    -1</i>
   <i type="int" name="NBANDSV">    -1</i>
   <i type="int" name="NELM">    60</i>
   <i type="int" name="NELMHF">     1</i>
   <i type="int" name="DIM">     3</i>
   <i type="int" name="ANTIRES">     0</i>
   <i name="OMEGAMAX">    -30.00000000</i>
   <i name="OMEGAMIN">    -30.00000000</i>
   <i name="OMEGATL">   -200.00000000</i>
   <i type="int" name="OMEGAGRID">     0</i>
   <i name="CSHIFT">     -0.10000000</i>
   <i type="logical" name="SELFENERGY"> F  </i>
   <i type="logical" name="LSPECTRAL"> F  </i>
   <i type="logical" name="LSPECTRALGW"> F  </i>
   <i type="logical" name="LSINGLES"> F  </i>
   <i type="logical" name="LFERMIGW"> F  </i>
   <i type="logical" name="ODDONLYGW"> F  </i>
   <i type="logical" name="EVENONLYGW"> F  </i>
   <i type="int" name="NKREDLFX">     1</i>
   <i type="int" name="NKREDLFY">     1</i>
   <i type="int" name="NKREDLFZ">     1</i>
   <i type="int" name="MAXMEM">  1800</i>
   <i type="int" name="TELESCOPE">     0</i>
   <i type="int" name="TAUPAR">     1</i>
   <i type="int" name="OMEGAPAR">    -1</i>
   <i name="LAMBDA">      1.00000000</i>
  </separator>
  <separator name="External order field" >
   <i name="OFIELD_KAPPA">      0.00000000</i>
   <v name="OFIELD_K">      0.00000000      0.00000000      0.00000000</v>
   <i name="OFIELD_Q6_NEAR">      0.00000000</i>
   <i name="OFIELD_Q6_FAR">      0.00000000</i>
   <i name="OFIELD_A">      0.00000000</i>
  </separator>
 </parameters>
 <atominfo>
  <atoms>       8 </atoms>
  <types>       1 </types>
  <array name="atoms" >
   <dimension dim="1">ion</dimension>
   <field type="string">element</field>
   <field type="int">atomtype</field>
   <set>
    <rc><c>Si</c><c>   1</c></rc>
    <rc><c>Si</c><c>   1</c></rc>
    <rc><c>Si</c><c>   1</c></rc>
    <rc><c>Si</c><c>   1</c></rc>
    <rc><c>Si</c><c>   1</c></rc>
    <rc><c>Si</c><c>   1</c></rc>
    <rc><c>Si</c><c>   1</c></rc>
    <rc><c>Si</c><c>   1</c></rc>
   </set>
  </array>
  <array name="atomtypes" >
   <dimension dim="1">type</dimension>
   <field type="int">atomspertype</field>
   <field type="string">element</field>
   <field>mass</field>
   <field>valence</field>
   <field type="string">pseudopotential</field>
   <set>
    <rc><c>   8</c><c>Si</c><c>     28.08500000</c><c>      4.00000000</c><c>  PAW_PBE Si 05Jan2001                  </c></rc>
   </set>
  </array>
 </atominfo>
 <structure name="initialpos" >
  <crystal>
   <varray name="basis" >
    <v>       5.43100000       0.00000000       0.00000000 </v>
    <v>       0.00000000       5.43100000       0.00000000 </v>
    <v>       0.00000000       0.00000000       5.43100000 </v>
   </varray>
   <i name="volume">    160.19147799 </i>
   <varray name="rec_basis" >
    <v>       0.18412815       0.00000000       0.00000000 </v>
    <v>       0.00000000       0.18412815       0.00000000 </v>
    <v>       0.00000000       0.00000000       0.18412815 </v>
   </varray>
  </crystal>
  <varray name="positions" >
   <v>       0.00000000       0.00000000       0.00000000 </v>
   <v>       0.00000000       0.50000000       0.50000000 </v>
   <v>       0.50000000       0.00000000       0.50000000 </v>
   <v>       0.50000000       0.50000000       0.00000000 </v>
   <v>       0.25000000       0.25000000       0.25000000 </v>
   <v>       0.75000000       0.75000000       0.25000000 </v>
   <v>       0.75000000       0.25000000       0.75000000 </v>
   <v>       0.25000000       0.75000000       0.75000000 </v>
  </varray>
 </structure>
 <calculation>
  <scstep>
   <time name="dav">    0.50    0.50</time>
   <time name="total">    0.51    0.51</time>
   <energy>
    <i name="alphaZ">     13.44915721 </i>
    <i name="ewald">   -914.08579262 </i>
    <i name="hartreedc">    -44.03749844 </i>
    <i name="XCdc">    -74.41614067 </i>
    <i name="pawpsdc">    704.99039692 </i>
    <i name="pawaedc">   -564.24414232 </i>
    <i name="eentropy">     -0.01097650 </i>
    <i name="bandstr">     81.83080375 </i>
    <i name="atom">    824.48621262 </i>
    <i name="e_fr_energy">     27.96201995 </i>
    <i name="e_wo_entrp">     27.97299645 </i>
    <i name="e_0_energy">     27.96750820 </i>
   </energy>
  </scstep>
  <scstep>
   <time name="dav">    0.30    0.30</time>
   <time name="total">    0.30    0.31</time>
   <energy>
    <i name="e_fr_energy">    -41.38408072 </i>
    <i name="e_wo_entrp">    -41.38408034 </i>
    <i name="e_0_energy">    -41.38408053 </i>
   </energy>
  </scstep>
  <scstep>
   <time name="dav">    0.33    0.33</time>
   <time name="total">    0.34    0.35</time>
   <energy>
    <i name="e_fr_energy">    -43.96962632 </i>
    <i name="e_wo_entrp">    -43.96962632 </i>
    <i name="e_0_energy">    -43.96962632 </i>
   </energy>
  </scstep>
  <scstep>
   <time name="dav">    0.30    0.30</time>
   <time name="total">    0.32    0.32</time>
   <energy>
    <i name="e_fr_energy">    -43.50127478 </i>
    <i name="e_wo_entrp">    -43.50127477 </i>
    <i name="e_0_energy">    -43.50127477 </i>
   </energy>
  </scstep>
  <scstep>
   <time name="dav">    0.28    0.28</time>
   <time name="total">    0.30    0.30</time>
   <energy>
    <i name="e_fr_energy">    -43.27294465 </i>
    <i name="e_wo_entrp">    -43.27294432 </i>
    <i name="e_0_energy">    -43.27294448 </i>
   </energy>
  </scstep>
  <scstep>
   <time name="dav">    0.30    0.30</time>
   <time name="total">    0.32    0.32</time>
   <energy>
    <i name="e_fr_energy">    -43.27751251 </i>
    <i name="e_wo_entrp">    -43.27751228 </i>
    <i name="e_0_energy">    -43.27751240 </i>
   </energy>
  </scstep>
  <scstep>
   <time name="dav">    0.28    0.28</time>
   <time name="total">    0.30    0.30</time>
   <energy>
    <i name="e_fr_energy">    -43.27909178 </i>
    <i name="e_wo_entrp">    -43.27909163 </i>
    <i name="e_0_energy">    -43.27909171 </i>
   </energy>
  </scstep>
  <scstep>
   <time name="dav">    0.26    0.26</time>
   <time name="total">    0.28    0.29</time>
   <energy>
    <i name="e_fr_energy">    -43.27919960 </i>
    <i name="e_wo_entrp">    -43.27919945 </i>
    <i name="e_0_energy">    -43.27919952 </i>
   </energy>
  </scstep>
  <scstep>
   <time name="dav">    0.26    0.26</time>
   <time name="total">    0.27    0.27</time>
   <energy>
    <i name="alphaZ">     13.44915721 </i>
    <i name="ewald">   -914.08579262 </i>
    <i name="hartreedc">    -59.65439520 </i>
    <i name="XCdc">    -71.81894637 </i>
    <i name="pawpsdc">   4211.57535641 </i>
    <i name="pawaedc">  -4071.75559055 </i>
    <i name="eentropy">     -0.00000015 </i>
    <i name="bandstr">     24.52474554 </i>
    <i name="atom">    824.48621262 </i>
    <i name="e_fr_energy">    -43.27925311 </i>
    <i name="e_wo_entrp">    -43.27925296 </i>
    <i name="e_0_energy">    -43.27925303 </i>
   </energy>
  </scstep>
  <structure>
   <crystal>
    <varray name="basis" >
     <v>       5.43100000       0.00000000       0.00000000 </v>
     <v>       0.00000000       5.43100000       0.00000000 </v>
     <v>       0.00000000       0.00000000       5.43100000 </v>
    </varray>
    <i name="volume">    160.19147799 </i>
    <varray name="rec_basis" >
     <v>       0.18412815       0.00000000       0.00000000 </v>
     <v>       0.00000000       0.18412815       0.00000000 </v>
     <v>       0.00000000       0.00000000       0.18412815 </v>
    </varray>
   </crystal>
   <varray name="positions" >
    <v>       0.00000000       0.00000000       0.00000000 </v>
    <v>       0.00000000       0.50000000       0.50000000 </v>
    <v>       0.50000000       0.00000000       0.50000000 </v>
    <v>       0.50000000       0.50000000       0.00000000 </v>
    <v>       0.25000000       0.25000000       0.25000000 </v>
    <v>       0.75000000       0.75000000       0.25000000 </v>
    <v>       0.75000000       0.25000000       0.75000000 </v>
    <v>       0.25000000       0.75000000       0.75000000 </v>
   </varray>
  </structure>
  <varray name="forces" >
   <v>      -0.00000000      -0.00000000      -0.00000000 </v>
   <v>       0.00000000       0.00000000       0.00000000 </v>
   <v>       0.00000000      -0.00000000      -0.00000000 </v>
   <v>      -0.00000000       0.00000000      -0.00000000 </v>
   <v>       0.00000000      -0.00000000       0.00000000 </v>
   <v>       0.00000000      -0.00000000       0.00000000 </v>
   <v>       0.00000000      -0.00000000      -0.00000000 </v>
   <v>       0.00000000       0.00000000       0.00000000 </v>
  </varray>
  <varray name="stress" >
   <v>      17.39172630       0.00000000      -0.00000000 </v>
   <v>      -0.00000000      17.39172630       0.00000000 </v>
   <v>      -0.00000000       0.00000000      17.39172630 </v>
  </varray>
  <energy>
   <i name="e_fr_energy">    -43.27925311 </i>
   <i name="e_wo_entrp">    -43.27925303 </i>
   <i name="e_0_energy">     -0.00000015 </i>
  </energy>
  <time name="totalsc">    3.18    3.24</time>
 </calculation>
 <calculation>
  <scstep>
   <time name="dav">    0.28    0.28</time>
   <time name="total">    0.28    0.29</time>
   <energy>
    <i name="alphaZ">     12.63727388 </i>
    <i name="ewald">   -895.30924307 </i>
    <i name="hartreedc">    -58.43068358 </i>
    <i name="XCdc">    -73.03775991 </i>
    <i name="pawpsdc">   4216.24349217 </i>
    <i name="pawaedc">  -4076.42323858 </i>
    <i name="eentropy">     -0.00000000 </i>
    <i name="bandstr">      6.54141071 </i>
    <i name="atom">    824.48621262 </i>
    <i name="e_fr_energy">    -43.29253576 </i>
    <i name="e_wo_entrp">    -43.29253576 </i>
    <i name="e_0_energy">    -43.29253576 </i>
   </energy>
  </scstep>
  <scstep>
   <time name="dav">    0.29    0.29</time>
   <time name="total">    0.29    0.30</time>
   <energy>
    <i name="e_fr_energy">    -43.29851098 </i>
    <i name="e_wo_entrp">    -43.29851098 </i>
    <i name="e_0_energy">    -43.29851098 </i>
   </energy>
  </scstep>
  <scstep>
   <time name="dav">    0.29    0.29</time>
   <time name="total">    0.30    0.31</time>
   <energy>
    <i name="e_fr_energy">    -43.29855705 </i>
    <i name="e_wo_entrp">    -43.29855705 </i>
    <i name="e_0_energy">    -43.29855705 </i>
   </energy>
  </scstep>
  <scstep>
   <time name="dav">    0.28    0.29</time>
   <time name="total">    0.31    0.31</time>
   <energy>
    <i name="e_fr_energy">    -43.24057474 </i>
    <i name="e_wo_entrp">    -43.24057474 </i>
    <i name="e_0_energy">    -43.24057474 </i>
   </energy>
  </scstep>
  <scstep>
   <time name="dav">    0.30    0.30</time>
   <time name="total">    0.32    0.33</time>
   <energy>
    <i name="e_fr_energy">    -43.21205158 </i>
    <i name="e_wo_entrp">    -43.21205157 </i>
    <i name="e_0_energy">    -43.21205157 </i>
   </energy>
  </scstep>
  <scstep>
   <time name="dav">    0.28    0.28</time>
   <time name="total">    0.30    0.30</time>
   <energy>
    <i name="e_fr_energy">    -43.21183742 </i>
    <i name="e_wo_entrp">    -43.21183741 </i>
    <i name="e_0_energy">    -43.21183741 </i>
   </energy>
  </scstep>
  <scstep>
   <time name="dav">    0.27    0.27</time>
   <time name="total">    0.27    0.28</time>
   <energy>
    <i name="alphaZ">     12.63727388 </i>
    <i name="ewald">   -895.30924307 </i>
    <i name="hartreedc">    -62.64309590 </i>
    <i name="XCdc">    -72.94685399 </i>
    <i name="pawpsdc">   3786.57477027 </i>
    <i name="pawaedc">  -3646.54571234 </i>
    <i name="eentropy">     -0.00000000 </i>
    <i name="bandstr">     10.53487227 </i>
    <i name="atom">    824.48621262 </i>
    <i name="e_fr_energy">    -43.21177626 </i>
    <i name="e_wo_entrp">    -43.21177625 </i>
    <i name="e_0_energy">    -43.21177626 </i>
   </energy>
  </scstep>
  <structure>
   <crystal>
    <varray name="basis" >
     <v>       5.54489968       0.00000000      -0.00000000 </v>
     <v>      -0.00000000       5.54489968       0.00000000 </v>
     <v>      -0.00000000       0.00000000       5.54489968 </v>
    </varray>
    <i name="volume">    170.48300062 </i>
    <varray name="rec_basis" >
     <v>       0.18034591       0.00000000       0.00000000 </v>
     <v>      -0.00000000       0.18034591      -0.00000000 </v>
     <v>       0.00000000      -0.00000000       0.18034591 </v>
    </varray>
   </crystal>
   <varray name="positions" >
    <v>      -0.00000000      -0.00000000      -0.00000000 </v>
    <v>       0.00000000       0.50000000       0.50000000 </v>
    <v>       0.50000000      -0.00000000       0.50000000 </v>
    <v>       0.50000000       0.50000000      -0.00000000 </v>
    <v>       0.25000000       0.25000000       0.25000000 </v>
    <v>       0.75000000       0.75000000       0.25000000 </v>
    <v>       0.75000000       0.25000000       0.75000000 </v>
    <v>       0.25000000       0.75000000       0.75000000 </v>
   </varray>
  </structure>
  <varray name="forces" >
   <v>      -0.00000000      -0.00000000      -0.00000000 </v>
   <v>      -0.00000000      -0.00000000      -0.00000000 </v>
   <v>      -0.00000000      -0.00000000      -0.00000000 </v>
   <v>      -0.00000000      -0.00000000      -0.00000000 </v>
   <v>       0.00000000       0.00000000       0.00000000 </v>
   <v>      -0.00000000       0.00000000       0.00000000 </v>
   <v>       0.00000000      -0.00000000       0.00000000 </v>
   <v>       0.00000000       0.00000000       0.00000000 </v>
  </varray>
  <varray name="stress" >
   <v>     -35.40775055       0.00000000       0.00000000 </v>
   <v>       0.00000000     -35.40775055       0.00000000 </v>
   <v>       0.00000000       0.00000000     -35.40775055 </v>
  </varray>
  <energy>
   <i name="e_fr_energy">    -43.21177626 </i>
   <i name="e_wo_entrp">    -43.21177626 </i>
   <i name="e_0_energy">     -0.00000000 </i>
  </energy>
  <time name="totalsc">    2.23    2.29</time>
 </calculation>
 <calculation>
  <scstep>
   <time name="dav">    0.36    0.37</time>
   <time name="total">    0.37    0.38</time>
   <energy>
    <i name="alphaZ">     13.19646228 </i>
    <i name="ewald">   -908.32466853 </i>
    <i name="hartreedc">    -63.56853679 </i>
    <i name="XCdc">    -72.11073813 </i>
    <i name="pawpsdc">   3812.18131320 </i>
    <i name="pawaedc">  -3672.15653780 </i>
    <i name="eentropy">     -0.00000039 </i>
    <i name="bandstr">     22.96212336 </i>
    <i name="atom">    824.48621262 </i>
    <i name="e_fr_energy">    -43.33437018 </i>
    <i name="e_wo_entrp">    -43.33436979 </i>
    <i name="e_0_energy">    -43.33436998 </i>
   </energy>
  </scstep>
  <scstep>
   <time name="dav">    0.31    0.31</time>
   <time name="total">    0.31    0.32</time>
   <energy>
    <i name="e_fr_energy">    -43.33801967 </i>
    <i name="e_wo_entrp">    -43.33801928 </i>
    <i name="e_0_energy">    -43.33801947 </i>
   </energy>
  </scstep>
  <scstep>
   <time name="dav">    0.28    0.28</time>
   <time name="total">    0.30    0.30</time>
   <energy>
    <i name="e_fr_energy">    -43.33804045 </i>
    <i name="e_wo_entrp">    -43.33804006 </i>
    <i name="e_0_energy">    -43.33804026 </i>
   </energy>
  </scstep>
  <scstep>
   <time name="dav">    0.25    0.25</time>
   <time name="total">    0.27    0.28</time>
   <energy>
    <i name="e_fr_energy">    -43.30929030 </i>
    <i name="e_wo_entrp">    -43.30929014 </i>
    <i name="e_0_energy">    -43.30929022 </i>
   </energy>
  </scstep>
  <scstep>
   <time name="dav">    0.27    0.27</time>
   <time name="total">    0.30    0.31</time>
   <energy>
    <i name="e_fr_energy">    -43.29539062 </i>
    <i name="e_wo_entrp">    -43.29539057 </i>
    <i name="e_0_energy">    -43.29539060 </i>
   </energy>
  </scstep>
  <scstep>
   <time name="dav">    0.41    0.42</time>
   <time name="total">    0.46    0.49</time>
   <energy>
    <i name="e_fr_energy">    -43.29537793 </i>
    <i name="e_wo_entrp">    -43.29537788 </i>
    <i name="e_0_energy">    -43.29537791 </i>
   </energy>
  </scstep>
  <scstep>
   <time name="dav">    0.26    0.26</time>
   <time name="total">    0.27    0.27</time>
   <energy>
    <i name="alphaZ">     13.19646228 </i>
    <i name="ewald">   -908.32466853 </i>
    <i name="hartreedc">    -60.55355222 </i>
    <i name="XCdc">    -72.16407704 </i>
    <i name="pawpsdc">   4097.91588944 </i>
    <i name="pawaedc">  -3958.03090017 </i>
    <i name="eentropy">     -0.00000005 </i>
    <i name="bandstr">     20.17932067 </i>
    <i name="atom">    824.48621262 </i>
    <i name="e_fr_energy">    -43.29531299 </i>
    <i name="e_wo_entrp">    -43.29531294 </i>
    <i name="e_0_energy">    -43.29531297 </i>
   </energy>
  </scstep>
  <structure>
   <crystal>
    <varray name="basis" >
     <v>       5.46544657       0.00000000      -0.00000000 </v>
     <v>      -0.00000000       5.46544657       0.00000000 </v>
     <v>      -0.00000000       0.00000000       5.46544657 </v>
    </varray>
    <i name="volume">    163.25893455 </i>
    <varray name="rec_basis" >
     <v>       0.18296767       0.00000000       0.00000000 </v>
     <v>      -0.00000000       0.18296767      -0.00000000 </v>
     <v>       0.00000000      -0.00000000       0.18296767 </v>
    </varray>
   </crystal>
   <varray name="positions" >
    <v>      -0.00000000      -0.00000000      -0.00000000 </v>
    <v>       0.00000000       0.50000000       0.50000000 </v>
    <v>       0.50000000      -0.00000000       0.50000000 </v>
    <v>       0.50000000       0.50000000      -0.00000000 </v>
    <v>       0.25000000       0.25000000       0.25000000 </v>
    <v>       0.75000000       0.75000000       0.25000000 </v>
    <v>       0.75000000       0.25000000       0.75000000 </v>
    <v>       0.25000000       0.75000000       0.75000000 </v>
   </varray>
  </structure>
  <varray name="forces" >
   <v>       0.00000000       0.00000000       0.00000000 </v>
   <v>       0.00000000       0.00000000       0.00000000 </v>
   <v>      -0.00000000      -0.00000000      -0.00000000 </v>
   <v>       0.00000000       0.00000000      -0.00000000 </v>
   <v>      -0.00000000      -0.00000000      -0.00000000 </v>
   <v>      -0.00000000      -0.00000000      -0.00000000 </v>
   <v>      -0.00000000      -0.00000000      -0.00000000 </v>
   <v>       0.00000000       0.00000000       0.00000000 </v>
  </varray>
  <varray name="stress" >
   <v>      -0.20589544      -0.00000000      -0.00000000 </v>
   <v>       0.00000000      -0.20589544      -0.00000000 </v>
   <v>       0.00000000       0.00000000      -0.20589544 </v>
  </varray>
  <energy>
   <i name="e_fr_energy">    -43.29531299 </i>
   <i name="e_wo_entrp">    -43.29531297 </i>
   <i name="e_0_energy">     -0.00000005 </i>
  </energy>
  <time name="totalsc">    2.49    2.61</time>
  <eigenvalues>
   <array>
    <dimension dim="1">band</dimension>
    <dimension dim="2">kpoint</dimension>
    <dimension dim="3">spin</dimension>
    <field>eigene</field>
    <field>occ</field>
    <set>
     <set comment="spin 1">
      <set comment="kpoint 1">
       <r>   -6.1933    1.0000 </r>
       <r>   -2.1177    1.0000 </r>
       <r>   -2.1177    1.0000 </r>
       <r>   -2.1177    1.0000 </r>
       <r>   -2.1177    1.0000 </r>
       <r>   -2.1177    1.0000 </r>
       <r>   -2.1177    1.0000 </r>
       <r>    2.8372    1.0000 </r>
       <r>    2.8372    1.0000 </r>
       <r>    2.8372    1.0000 </r>
       <r>    2.8372    1.0000 </r>
       <r>    2.8372    1.0000 </r>
       <r>    2.8372    1.0000 </r>
       <r>    5.6474    1.0000 </r>
       <r>    5.6474    1.0000 </r>
       <r>    5.6474    1.0000 </r>
       <r>    6.4025    0.0000 </r>
       <r>    6.4025    0.0000 </r>
       <r>    6.4025    0.0000 </r>
       <r>    6.4025    0.0000 </r>
       <r>    6.4025    0.0000 </r>
       <r>    6.4025    0.0000 </r>
       <r>    8.2056    0.0000 </r>
       <r>    8.2056    0.0000 </r>
       <r>    8.2056    0.0000 </r>
      </set>
      <set comment="kpoint 2">
       <r>   -6.1401    1.0000 </r>
       <r>   -2.9294    1.0000 </r>
       <r>   -2.1009    1.0000 </r>
       <r>   -2.1009    1.0000 </r>
       <r>   -2.1009    1.0000 </r>
       <r>   -2.1009    1.0000 </r>
       <r>   -1.2417    1.0000 </r>
       <r>    2.6914    1.0000 </r>
       <r>    2.6914    1.0000 </r>
       <r>    2.6914    1.0000 </r>
       <r>    2.6914    1.0000 </r>
       <r>    2.8854    1.0000 </r>
       <r>    2.8854    1.0000 </r>
       <r>    5.2972    1.0000 </r>
       <r>    5.4392    1.0000 </r>
       <r>    5.4392    1.0000 </r>
       <r>    6.2737    0.0000 </r>
       <r>    6.6767    0.0000 </r>
       <r>    6.6837    0.0000 </r>
       <r>    6.6837    0.0000 </r>
       <r>    6.6837    0.0000 </r>
       <r>    6.6837    0.0000 </r>
       <r>    8.0787    0.0000 </r>
       <r>    8.4796    0.0000 </r>
       <r>    8.4796    0.0000 </r>
      </set>
      <set comment="kpoint 3">
       <r>   -5.9811    1.0000 </r>
       <r>   -3.6666    1.0000 </r>
       <r>   -2.0566    1.0000 </r>
       <r>   -2.0566    1.0000 </r>
       <r>   -2.0566    1.0000 </r>
       <r>   -2.0566    1.0000 </r>
       <r>   -0.3162    1.0000 </r>
       <r>    2.3742    1.0000 </r>
       <r>    2.3742    1.0000 </r>
       <r>    2.3742    1.0000 </r>
       <r>    2.3742    1.0000 </r>
       <r>    3.0296    1.0000 </r>
       <r>    3.0296    1.0000 </r>
       <r>    4.5158    1.0000 </r>
       <r>    4.9814    1.0000 </r>
       <r>    4.9814    1.0000 </r>
       <r>    6.2792    0.0000 </r>
       <r>    7.1010    0.0000 </r>
       <r>    7.4109    0.0000 </r>
       <r>    7.4109    0.0000 </r>
       <r>    7.4109    0.0000 </r>
       <r>    7.4109    0.0000 </r>
       <r>    7.7592    0.0000 </r>
       <r>    9.1317    0.0000 </r>
       <r>    9.1317    0.0000 </r>
      </set>
      <set comment="kpoint 4">
       <r>   -5.7172    1.0000 </r>
       <r>   -4.3201    1.0000 </r>
       <r>   -2.0037    1.0000 </r>
       <r>   -2.0037    1.0000 </r>
       <r>   -2.0037    1.0000 </r>
       <r>   -2.0037    1.0000 </r>
       <r>    0.6449    1.0000 </r>
       <r>    2.0698    1.0000 </r>
       <r>    2.0698    1.0000 </r>
       <r>    2.0698    1.0000 </r>
       <r>    2.0698    1.0000 </r>
       <r>    3.2668    1.0000 </r>
       <r>    3.2668    1.0000 </r>
       <r>    3.5880    1.0000 </r>
       <r>    4.4747    1.0000 </r>
       <r>    4.4747    1.0000 </r>
       <r>    6.4081    0.0000 </r>
       <r>    7.3614    0.0000 </r>
       <r>    7.6782    0.0000 </r>
       <r>    8.4073    0.0000 </r>
       <r>    8.4073    0.0000 </r>
       <r>    8.4073    0.0000 </r>
       <r>    8.4073    0.0000 </r>
       <r>    9.8693    0.0000 </r>
       <r>    9.9612    0.0000 </r>
      </set>
      <set comment="kpoint 5">
       <r>   -5.3503    1.0000 </r>
       <r>   -4.8835    1.0000 </r>
       <r>   -1.9671    1.0000 </r>
       <r>   -1.9671    1.0000 </r>
       <r>   -1.9671    1.0000 </r>
       <r>   -1.9671    1.0000 </r>
       <r>    1.6260    1.0000 </r>
       <r>    1.8918    1.0000 </r>
       <r>    1.8918    1.0000 </r>
       <r>    1.8918    1.0000 </r>
       <r>    1.8918    1.0000 </r>
       <r>    2.6128    1.0000 </r>
       <r>    3.5924    1.0000 </r>
       <r>    3.5924    1.0000 </r>
       <r>    3.9998    1.0000 </r>
       <r>    3.9998    1.0000 </r>
       <r>    6.6433    0.0000 </r>
       <r>    6.9723    0.0000 </r>
       <r>    8.3950    0.0000 </r>
       <r>    9.2013    0.0000 </r>
       <r>    9.5434    0.0000 </r>
       <r>    9.5434    0.0000 </r>
       <r>    9.5434    0.0000 </r>
       <r>    9.5434    0.0000 </r>
       <r>   10.8783    0.0000 </r>
      </set>
      <set comment="kpoint 6">
       <r>   -6.0872    1.0000 </r>
       <r>   -2.9002    1.0000 </r>
       <r>   -2.9002    1.0000 </r>
       <r>   -2.1720    1.0000 </r>
       <r>   -2.0022    1.0000 </r>
       <r>   -1.2442    1.0000 </r>
       <r>   -1.2442    1.0000 </r>
       <r>    2.2873    1.0000 </r>
       <r>    2.7134    1.0000 </r>
       <r>    2.7134    1.0000 </r>
       <r>    2.7749    1.0000 </r>
       <r>    2.7749    1.0000 </r>
       <r>    2.9221    1.0000 </r>
       <r>    4.7677    1.0000 </r>
       <r>    5.2296    1.0000 </r>
       <r>    5.5975    1.0000 </r>
       <r>    6.5002    0.0000 </r>
       <r>    6.5688    0.0000 </r>
       <r>    6.5688    0.0000 </r>
       <r>    6.9393    0.0000 </r>
       <r>    6.9393    0.0000 </r>
       <r>    7.3165    0.0000 </r>
       <r>    8.3153    0.0000 </r>
       <r>    8.3998    0.0000 </r>
       <r>    8.4292    0.0000 </r>
      </set>
      <set comment="kpoint 7">
       <r>   -5.9287    1.0000 </r>
       <r>   -3.6291    1.0000 </r>
       <r>   -2.8167    1.0000 </r>
       <r>   -2.2328    1.0000 </r>
       <r>   -1.8700    1.0000 </r>
       <r>   -1.2596    1.0000 </r>
       <r>   -0.3482    1.0000 </r>
       <r>    1.8948    1.0000 </r>
       <r>    2.3361    1.0000 </r>
       <r>    2.5431    1.0000 </r>
       <r>    2.8388    1.0000 </r>
       <r>    2.8612    1.0000 </r>
       <r>    2.9664    1.0000 </r>
       <r>    4.0292    1.0000 </r>
       <r>    4.7709    1.0000 </r>
       <r>    5.3071    1.0000 </r>
       <r>    6.5842    0.0000 </r>
       <r>    6.8758    0.0000 </r>
       <r>    7.3187    0.0000 </r>
       <r>    7.3420    0.0000 </r>
       <r>    7.6334    0.0000 </r>
       <r>    8.0450    0.0000 </r>
       <r>    8.2273    0.0000 </r>
       <r>    8.7732    0.0000 </r>
       <r>    9.0284    0.0000 </r>
      </set>
      <set comment="kpoint 8">
       <r>   -5.6659    1.0000 </r>
       <r>   -4.2771    1.0000 </r>
       <r>   -2.6921    1.0000 </r>
       <r>   -2.3072    1.0000 </r>
       <r>   -1.7119    1.0000 </r>
       <r>   -1.3077    1.0000 </r>
       <r>    0.5673    1.0000 </r>
       <r>    1.6310    1.0000 </r>
       <r>    1.9499    1.0000 </r>
       <r>    2.3520    1.0000 </r>
       <r>    2.6294    1.0000 </r>
       <r>    3.0636    1.0000 </r>
       <r>    3.2230    1.0000 </r>
       <r>    3.2667    1.0000 </r>
       <r>    4.2608    1.0000 </r>
       <r>    4.7570    1.0000 </r>
       <r>    6.7179    0.0000 </r>
       <r>    7.6603    0.0000 </r>
       <r>    7.6878    0.0000 </r>
       <r>    7.8949    0.0000 </r>
       <r>    8.3317    0.0000 </r>
       <r>    8.6029    0.0000 </r>
       <r>    9.3126    0.0000 </r>
       <r>    9.3979    0.0000 </r>
       <r>    9.8767    0.0000 </r>
      </set>
      <set comment="kpoint 9">
       <r>   -5.3009    1.0000 </r>
       <r>   -4.8364    1.0000 </r>
       <r>   -2.5483    1.0000 </r>
       <r>   -2.4131    1.0000 </r>
       <r>   -1.5476    1.0000 </r>
       <r>   -1.4046    1.0000 </r>
       <r>    1.4802    1.0000 </r>
       <r>    1.5520    1.0000 </r>
       <r>    1.6681    1.0000 </r>
       <r>    2.2992    1.0000 </r>
       <r>    2.3700    1.0000 </r>
       <r>    2.4058    1.0000 </r>
       <r>    3.3822    1.0000 </r>
       <r>    3.6744    1.0000 </r>
       <r>    3.7867    1.0000 </r>
       <r>    4.1815    1.0000 </r>
       <r>    6.9559    0.0000 </r>
       <r>    7.2798    0.0000 </r>
       <r>    8.5861    0.0000 </r>
       <r>    8.7534    0.0000 </r>
       <r>    9.3374    0.0000 </r>
       <r>    9.4974    0.0000 </r>
       <r>    9.6112    0.0000 </r>
       <r>   10.2325    0.0000 </r>
       <r>   10.3591    0.0000 </r>
      </set>
      <set comment="kpoint 10">
       <r>   -5.7723    1.0000 </r>
       <r>   -3.5193    1.0000 </r>
       <r>   -3.5193    1.0000 </r>
       <r>   -2.4210    1.0000 </r>
       <r>   -1.6563    1.0000 </r>
       <r>   -0.4499    1.0000 </r>
       <r>   -0.4499    1.0000 </r>
       <r>    1.5420    1.0000 </r>
       <r>    2.4202    1.0000 </r>
       <r>    2.4202    1.0000 </r>
       <r>    2.8502    1.0000 </r>
       <r>    2.8502    1.0000 </r>
       <r>    3.1711    1.0000 </r>
       <r>    3.3232    1.0000 </r>
       <r>    4.3061    1.0000 </r>
       <r>    5.4234    1.0000 </r>
       <r>    6.7870    0.0000 </r>
       <r>    7.3474    0.0000 </r>
       <r>    7.3474    0.0000 </r>
       <r>    7.9948    0.0000 </r>
       <r>    7.9948    0.0000 </r>
       <r>    8.5921    0.0000 </r>
       <r>    8.6442    0.0000 </r>
       <r>    8.8489    0.0000 </r>
       <r>    9.2286    0.0000 </r>
      </set>
      <set comment="kpoint 11">
       <r>   -5.5128    1.0000 </r>
       <r>   -4.1496    1.0000 </r>
       <r>   -3.3460    1.0000 </r>
       <r>   -2.6374    1.0000 </r>
       <r>   -1.4103    1.0000 </r>
       <r>   -0.6278    1.0000 </r>
       <r>    0.3477    1.0000 </r>
       <r>    1.3745    1.0000 </r>
       <r>    1.9783    1.0000 </r>
       <r>    2.5961    1.0000 </r>
       <r>    2.6183    1.0000 </r>
       <r>    2.7998    1.0000 </r>
       <r>    3.1888    1.0000 </r>
       <r>    3.2960    1.0000 </r>
       <r>    3.7929    1.0000 </r>
       <r>    5.0836    1.0000 </r>
       <r>    7.2461    0.0000 </r>
       <r>    7.4858    0.0000 </r>
       <r>    8.3668    0.0000 </r>
       <r>    8.3809    0.0000 </r>
       <r>    8.4988    0.0000 </r>
       <r>    8.8818    0.0000 </r>
       <r>    8.9248    0.0000 </r>
       <r>    9.6536    0.0000 </r>
       <r>   10.3495    0.0000 </r>
      </set>
      <set comment="kpoint 12">
       <r>   -5.1533    1.0000 </r>
       <r>   -4.6970    1.0000 </r>
       <r>   -3.1249    1.0000 </r>
       <r>   -2.8795    1.0000 </r>
       <r>   -1.1402    1.0000 </r>
       <r>   -0.8684    1.0000 </r>
       <r>    1.1186    1.0000 </r>
       <r>    1.4072    1.0000 </r>
       <r>    1.6214    1.0000 </r>
       <r>    1.8637    1.0000 </r>
       <r>    2.8687    1.0000 </r>
       <r>    2.9218    1.0000 </r>
       <r>    3.0313    1.0000 </r>
       <r>    3.3189    1.0000 </r>
       <r>    3.8618    1.0000 </r>
       <r>    4.4939    1.0000 </r>
       <r>    7.7196    0.0000 </r>
       <r>    8.0281    0.0000 </r>
       <r>    8.1268    0.0000 </r>
       <r>    9.1281    0.0000 </r>
       <r>    9.2254    0.0000 </r>
       <r>    9.4029    0.0000 </r>
       <r>    9.5370    0.0000 </r>
       <r>   10.0694    0.0000 </r>
       <r>   10.1492    0.0000 </r>
      </set>
      <set comment="kpoint 13">
       <r>   -5.2598    1.0000 </r>
       <r>   -3.9435    1.0000 </r>
       <r>   -3.9435    1.0000 </r>
       <r>   -2.9906    1.0000 </r>
       <r>   -1.0829    1.0000 </r>
       <r>    0.0256    1.0000 </r>
       <r>    0.0256    1.0000 </r>
       <r>    1.3171    1.0000 </r>
       <r>    1.9406    1.0000 </r>
       <r>    2.1406    1.0000 </r>
       <r>    2.1406    1.0000 </r>
       <r>    3.2780    1.0000 </r>
       <r>    3.3911    1.0000 </r>
       <r>    3.3911    1.0000 </r>
       <r>    3.5646    1.0000 </r>
       <r>    5.0857    1.0000 </r>
       <r>    7.2405    0.0000 </r>
       <r>    8.5008    0.0000 </r>
       <r>    8.5008    0.0000 </r>
       <r>    8.6335    0.0000 </r>
       <r>    9.1898    0.0000 </r>
       <r>    9.3815    0.0000 </r>
       <r>    9.3815    0.0000 </r>
       <r>    9.4772    0.0000 </r>
       <r>    9.8400    0.0000 </r>
      </set>
      <set comment="kpoint 14">
       <r>   -4.9101    1.0000 </r>
       <r>   -4.4687    1.0000 </r>
       <r>   -3.6693    1.0000 </r>
       <r>   -3.3436    1.0000 </r>
       <r>   -0.7250    1.0000 </r>
       <r>   -0.3468    1.0000 </r>
       <r>    0.6600    1.0000 </r>
       <r>    1.2940    1.0000 </r>
       <r>    1.4463    1.0000 </r>
       <r>    1.7326    1.0000 </r>
       <r>    2.4219    1.0000 </r>
       <r>    2.8079    1.0000 </r>
       <r>    3.5351    1.0000 </r>
       <r>    3.6452    1.0000 </r>
       <r>    4.0604    1.0000 </r>
       <r>    4.6891    1.0000 </r>
       <r>    7.7617    0.0000 </r>
       <r>    8.6797    0.0000 </r>
       <r>    8.7184    0.0000 </r>
       <r>    8.7794    0.0000 </r>
       <r>    8.9967    0.0000 </r>
       <r>    9.2186    0.0000 </r>
       <r>    9.6598    0.0000 </r>
       <r>    9.9762    0.0000 </r>
       <r>   10.4027    0.0000 </r>
      </set>
      <set comment="kpoint 15">
       <r>   -4.5760    1.0000 </r>
       <r>   -4.1586    1.0000 </r>
       <r>   -4.1586    1.0000 </r>
       <r>   -3.7778    1.0000 </r>
       <r>   -0.2861    1.0000 </r>
       <r>    0.1797    1.0000 </r>
       <r>    0.1797    1.0000 </r>
       <r>    0.7259    1.0000 </r>
       <r>    1.6465    1.0000 </r>
       <r>    1.9814    1.0000 </r>
       <r>    1.9814    1.0000 </r>
       <r>    2.3481    1.0000 </r>
       <r>    4.0654    1.0000 </r>
       <r>    4.1748    1.0000 </r>
       <r>    4.1748    1.0000 </r>
       <r>    4.6036    1.0000 </r>
       <r>    7.8056    0.0000 </r>
       <r>    8.3369    0.0000 </r>
       <r>    8.3369    0.0000 </r>
       <r>    8.3488    0.0000 </r>
       <r>    9.8478    0.0000 </r>
       <r>    9.8478    0.0000 </r>
       <r>    9.9478    0.0000 </r>
       <r>   10.2850    0.0000 </r>
       <r>   10.9148    0.0000 </r>
      </set>
      <set comment="kpoint 16">
       <r>   -6.0345    1.0000 </r>
       <r>   -2.8766    1.0000 </r>
       <r>   -2.8766    1.0000 </r>
       <r>   -2.8766    1.0000 </r>
       <r>   -1.2488    1.0000 </r>
       <r>   -1.2488    1.0000 </r>
       <r>   -1.2488    1.0000 </r>
       <r>    2.3544    1.0000 </r>
       <r>    2.3544    1.0000 </r>
       <r>    2.3544    1.0000 </r>
       <r>    2.9694    1.0000 </r>
       <r>    2.9694    1.0000 </r>
       <r>    2.9694    1.0000 </r>
       <r>    4.3031    1.0000 </r>
       <r>    5.4135    1.0000 </r>
       <r>    5.4135    1.0000 </r>
       <r>    6.5373    0.0000 </r>
       <r>    6.5373    0.0000 </r>
       <r>    6.5373    0.0000 </r>
       <r>    7.4184    0.0000 </r>
       <r>    7.4184    0.0000 </r>
       <r>    7.4184    0.0000 </r>
       <r>    8.1404    0.0000 </r>
       <r>    8.5499    0.0000 </r>
       <r>    8.5499    0.0000 </r>
      </set>
      <set comment="kpoint 17">
       <r>   -5.8767    1.0000 </r>
       <r>   -3.5942    1.0000 </r>
       <r>   -2.8131    1.0000 </r>
       <r>   -2.8131    1.0000 </r>
       <r>   -1.2658    1.0000 </r>
       <r>   -1.2658    1.0000 </r>
       <r>   -0.3908    1.0000 </r>
       <r>    1.9798    1.0000 </r>
       <r>    1.9798    1.0000 </r>
       <r>    2.5574    1.0000 </r>
       <r>    2.9183    1.0000 </r>
       <r>    2.9183    1.0000 </r>
       <r>    3.1108    1.0000 </r>
       <r>    3.5955    1.0000 </r>
       <r>    4.9935    1.0000 </r>
       <r>    5.2134    1.0000 </r>
       <r>    6.6513    0.0000 </r>
       <r>    6.9280    0.0000 </r>
       <r>    6.9280    0.0000 </r>
       <r>    7.7165    0.0000 </r>
       <r>    8.1352    0.0000 </r>
       <r>    8.3060    0.0000 </r>
       <r>    8.3060    0.0000 </r>
       <r>    8.5483    0.0000 </r>
       <r>    9.1179    0.0000 </r>
      </set>
      <set comment="kpoint 18">
       <r>   -5.6151    1.0000 </r>
       <r>   -4.2354    1.0000 </r>
       <r>   -2.7327    1.0000 </r>
       <r>   -2.7327    1.0000 </r>
       <r>   -1.2979    1.0000 </r>
       <r>   -1.2979    1.0000 </r>
       <r>    0.4680    1.0000 </r>
       <r>    1.7204    1.0000 </r>
       <r>    1.7204    1.0000 </r>
       <r>    2.7192    1.0000 </r>
       <r>    2.7192    1.0000 </r>
       <r>    2.8541    1.0000 </r>
       <r>    2.9002    1.0000 </r>
       <r>    3.3434    1.0000 </r>
       <r>    4.5135    1.0000 </r>
       <r>    4.6412    1.0000 </r>
       <r>    6.8497    0.0000 </r>
       <r>    7.7396    0.0000 </r>
       <r>    7.7396    0.0000 </r>
       <r>    7.8474    0.0000 </r>
       <r>    8.1963    0.0000 </r>
       <r>    9.1188    0.0000 </r>
       <r>    9.3791    0.0000 </r>
       <r>    9.3791    0.0000 </r>
       <r>    9.8407    0.0000 </r>
      </set>
      <set comment="kpoint 19">
       <r>   -5.2519    1.0000 </r>
       <r>   -4.7903    1.0000 </r>
       <r>   -2.6740    1.0000 </r>
       <r>   -2.6740    1.0000 </r>
       <r>   -1.3283    1.0000 </r>
       <r>   -1.3283    1.0000 </r>
       <r>    1.3008    1.0000 </r>
       <r>    1.6003    1.0000 </r>
       <r>    1.6003    1.0000 </r>
       <r>    2.0941    1.0000 </r>
       <r>    2.5630    1.0000 </r>
       <r>    2.5630    1.0000 </r>
       <r>    3.3822    1.0000 </r>
       <r>    3.6620    1.0000 </r>
       <r>    3.9830    1.0000 </r>
       <r>    4.0581    1.0000 </r>
       <r>    7.1291    0.0000 </r>
       <r>    7.4731    0.0000 </r>
       <r>    8.8015    0.0000 </r>
       <r>    8.8015    0.0000 </r>
       <r>    8.8320    0.0000 </r>
       <r>    9.4791    0.0000 </r>
       <r>   10.0000    0.0000 </r>
       <r>   10.0000    0.0000 </r>
       <r>   10.2839    0.0000 </r>
      </set>
      <set comment="kpoint 20">
       <r>   -5.7210    1.0000 </r>
       <r>   -3.4933    1.0000 </r>
       <r>   -3.4933    1.0000 </r>
       <r>   -2.8170    1.0000 </r>
       <r>   -1.2729    1.0000 </r>
       <r>   -0.5190    1.0000 </r>
       <r>   -0.5190    1.0000 </r>
       <r>    1.6727    1.0000 </r>
       <r>    2.2314    1.0000 </r>
       <r>    2.2314    1.0000 </r>
       <r>    2.9132    1.0000 </r>
       <r>    3.0926    1.0000 </r>
       <r>    3.0926    1.0000 </r>
       <r>    3.2157    1.0000 </r>
       <r>    4.6558    1.0000 </r>
       <r>    5.3014    1.0000 </r>
       <r>    6.8491    0.0000 </r>
       <r>    7.0808    0.0000 </r>
       <r>    7.0808    0.0000 </r>
       <r>    8.1099    0.0000 </r>
       <r>    8.5443    0.0000 </r>
       <r>    8.5443    0.0000 </r>
       <r>    8.7650    0.0000 </r>
       <r>    9.1029    0.0000 </r>
       <r>    9.2949    0.0000 </r>
      </set>
      <set comment="kpoint 21">
       <r>   -5.4632    1.0000 </r>
       <r>   -4.1128    1.0000 </r>
       <r>   -3.3391    1.0000 </r>
       <r>   -2.8647    1.0000 </r>
       <r>   -1.2431    1.0000 </r>
       <r>   -0.7184    1.0000 </r>
       <r>    0.2013    1.0000 </r>
       <r>    1.5449    1.0000 </r>
       <r>    1.9651    1.0000 </r>
       <r>    2.2229    1.0000 </r>
       <r>    2.6288    1.0000 </r>
       <r>    2.9971    1.0000 </r>
       <r>    3.2403    1.0000 </r>
       <r>    3.3951    1.0000 </r>
       <r>    4.1525    1.0000 </r>
       <r>    4.9822    1.0000 </r>
       <r>    7.3053    0.0000 </r>
       <r>    7.3229    0.0000 </r>
       <r>    7.8909    0.0000 </r>
       <r>    8.2178    0.0000 </r>
       <r>    8.8214    0.0000 </r>
       <r>    8.9448    0.0000 </r>
       <r>    9.5804    0.0000 </r>
       <r>    9.6406    0.0000 </r>
       <r>   10.4024    0.0000 </r>
      </set>
      <set comment="kpoint 22">
       <r>   -5.1061    1.0000 </r>
       <r>   -4.6537    1.0000 </r>
       <r>   -3.1562    1.0000 </r>
       <r>   -2.9834    1.0000 </r>
       <r>   -1.1335    1.0000 </r>
       <r>   -0.9436    1.0000 </r>
       <r>    0.8852    1.0000 </r>
       <r>    1.5505    1.0000 </r>
       <r>    1.5863    1.0000 </r>
       <r>    1.7449    1.0000 </r>
       <r>    2.9925    1.0000 </r>
       <r>    3.1071    1.0000 </r>
       <r>    3.1164    1.0000 </r>
       <r>    3.6323    1.0000 </r>
       <r>    3.8423    1.0000 </r>
       <r>    4.4122    1.0000 </r>
       <r>    7.6347    0.0000 </r>
       <r>    7.9781    0.0000 </r>
       <r>    8.1788    0.0000 </r>
       <r>    8.9379    0.0000 </r>
       <r>    9.3049    0.0000 </r>
       <r>    9.3613    0.0000 </r>
       <r>    9.4836    0.0000 </r>
       <r>   10.1553    0.0000 </r>
       <r>   10.2398    0.0000 </r>
      </set>
      <set comment="kpoint 23">
       <r>   -5.2124    1.0000 </r>
       <r>   -3.9165    1.0000 </r>
       <r>   -3.9165    1.0000 </r>
       <r>   -3.0903    1.0000 </r>
       <r>   -1.0994    1.0000 </r>
       <r>   -0.1564    1.0000 </r>
       <r>   -0.1564    1.0000 </r>
       <r>    1.5509    1.0000 </r>
       <r>    1.5806    1.0000 </r>
       <r>    2.3103    1.0000 </r>
       <r>    2.3103    1.0000 </r>
       <r>    3.4653    1.0000 </r>
       <r>    3.4653    1.0000 </r>
       <r>    3.6033    1.0000 </r>
       <r>    3.6594    1.0000 </r>
       <r>    5.0332    1.0000 </r>
       <r>    7.2986    0.0000 </r>
       <r>    8.1284    0.0000 </r>
       <r>    8.1284    0.0000 </r>
       <r>    8.3188    0.0000 </r>
       <r>    9.1461    0.0000 </r>
       <r>    9.4301    0.0000 </r>
       <r>    9.7952    0.0000 </r>
       <r>    9.7954    0.0000 </r>
       <r>   10.0002    0.0000 </r>
      </set>
      <set comment="kpoint 24">
       <r>   -4.8664    1.0000 </r>
       <r>   -4.4311    1.0000 </r>
       <r>   -3.6614    1.0000 </r>
       <r>   -3.3726    1.0000 </r>
       <r>   -0.8545    1.0000 </r>
       <r>   -0.5275    1.0000 </r>
       <r>    0.3980    1.0000 </r>
       <r>    0.9716    1.0000 </r>
       <r>    1.7124    1.0000 </r>
       <r>    1.9837    1.0000 </r>
       <r>    2.7153    1.0000 </r>
       <r>    3.1688    1.0000 </r>
       <r>    3.5879    1.0000 </r>
       <r>    3.6855    1.0000 </r>
       <r>    4.0654    1.0000 </r>
       <r>    4.6598    1.0000 </r>
       <r>    7.8084    0.0000 </r>
       <r>    8.4098    0.0000 </r>
       <r>    8.4962    0.0000 </r>
       <r>    8.7106    0.0000 </r>
       <r>    9.0010    0.0000 </r>
       <r>    9.1636    0.0000 </r>
       <r>    9.2337    0.0000 </r>
       <r>   10.0928    0.0000 </r>
       <r>   10.3408    0.0000 </r>
      </set>
      <set comment="kpoint 25">
       <r>   -4.5381    1.0000 </r>
       <r>   -4.1312    1.0000 </r>
       <r>   -4.1312    1.0000 </r>
       <r>   -3.7698    1.0000 </r>
       <r>   -0.4999    1.0000 </r>
       <r>   -0.0764    1.0000 </r>
       <r>   -0.0764    1.0000 </r>
       <r>    0.4231    1.0000 </r>
       <r>    1.9636    1.0000 </r>
       <r>    2.3107    1.0000 </r>
       <r>    2.3107    1.0000 </r>
       <r>    2.7136    1.0000 </r>
       <r>    4.0898    1.0000 </r>
       <r>    4.1921    1.0000 </r>
       <r>    4.1921    1.0000 </r>
       <r>    4.6012    1.0000 </r>
       <r>    7.8383    0.0000 </r>
       <r>    8.2901    0.0000 </r>
       <r>    8.3370    0.0000 </r>
       <r>    8.3370    0.0000 </r>
       <r>    9.4496    0.0000 </r>
       <r>    9.4496    0.0000 </r>
       <r>    9.7360    0.0000 </r>
       <r>    9.8063    0.0000 </r>
       <r>   10.5662    0.0000 </r>
      </set>
      <set comment="kpoint 26">
       <r>   -5.5680    1.0000 </r>
       <r>   -3.4229    1.0000 </r>
       <r>   -3.4229    1.0000 </r>
       <r>   -3.4229    1.0000 </r>
       <r>   -0.6999    1.0000 </r>
       <r>   -0.6999    1.0000 </r>
       <r>   -0.6999    1.0000 </r>
       <r>    2.0558    1.0000 </r>
       <r>    2.0558    1.0000 </r>
       <r>    2.0558    1.0000 </r>
       <r>    2.2472    1.0000 </r>
       <r>    3.3479    1.0000 </r>
       <r>    3.3479    1.0000 </r>
       <r>    3.3479    1.0000 </r>
       <r>    4.9927    1.0000 </r>
       <r>    4.9927    1.0000 </r>
       <r>    7.0311    0.0000 </r>
       <r>    7.0311    0.0000 </r>
       <r>    7.0311    0.0000 </r>
       <r>    7.7188    0.0000 </r>
       <r>    9.0782    0.0000 </r>
       <r>    9.0782    0.0000 </r>
       <r>    9.4967    0.0000 </r>
       <r>    9.4967    0.0000 </r>
       <r>    9.4967    0.0000 </r>
      </set>
      <set comment="kpoint 27">
       <r>   -5.3151    1.0000 </r>
       <r>   -4.0061    1.0000 </r>
       <r>   -3.3331    1.0000 </r>
       <r>   -3.3331    1.0000 </r>
       <r>   -0.9143    1.0000 </r>
       <r>   -0.9143    1.0000 </r>
       <r>   -0.1439    1.0000 </r>
       <r>    1.5886    1.0000 </r>
       <r>    2.0057    1.0000 </r>
       <r>    2.0057    1.0000 </r>
       <r>    2.6507    1.0000 </r>
       <r>    3.3971    1.0000 </r>
       <r>    3.3971    1.0000 </r>
       <r>    3.5641    1.0000 </r>
       <r>    4.6037    1.0000 </r>
       <r>    4.7776    1.0000 </r>
       <r>    7.3165    0.0000 </r>
       <r>    7.4774    0.0000 </r>
       <r>    7.4774    0.0000 </r>
       <r>    7.8411    0.0000 </r>
       <r>    8.9042    0.0000 </r>
       <r>    9.5088    0.0000 </r>
       <r>    9.8405    0.0000 </r>
       <r>   10.4775    0.0000 </r>
       <r>   10.4775    0.0000 </r>
      </set>
      <set comment="kpoint 28">
       <r>   -4.9659    1.0000 </r>
       <r>   -4.5262    1.0000 </r>
       <r>   -3.2673    1.0000 </r>
       <r>   -3.2673    1.0000 </r>
       <r>   -1.0598    1.0000 </r>
       <r>   -1.0598    1.0000 </r>
       <r>    0.4039    1.0000 </r>
       <r>    0.9745    1.0000 </r>
       <r>    2.0186    1.0000 </r>
       <r>    2.0186    1.0000 </r>
       <r>    3.3446    1.0000 </r>
       <r>    3.3446    1.0000 </r>
       <r>    3.3796    1.0000 </r>
       <r>    3.8567    1.0000 </r>
       <r>    4.1400    1.0000 </r>
       <r>    4.2111    1.0000 </r>
       <r>    7.6650    0.0000 </r>
       <r>    7.9537    0.0000 </r>
       <r>    8.3262    0.0000 </r>
       <r>    8.3262    0.0000 </r>
       <r>    9.1108    0.0000 </r>
       <r>    9.4155    0.0000 </r>
       <r>    9.4155    0.0000 </r>
       <r>    9.8869    0.0000 </r>
       <r>   10.0231    0.0000 </r>
      </set>
      <set comment="kpoint 29">
       <r>   -5.0713    1.0000 </r>
       <r>   -3.8434    1.0000 </r>
       <r>   -3.8434    1.0000 </r>
       <r>   -3.3675    1.0000 </r>
       <r>   -1.0649    1.0000 </r>
       <r>   -0.5352    1.0000 </r>
       <r>   -0.5352    1.0000 </r>
       <r>    0.9627    1.0000 </r>
       <r>    2.1385    1.0000 </r>
       <r>    2.6336    1.0000 </r>
       <r>    2.6336    1.0000 </r>
       <r>    3.6691    1.0000 </r>
       <r>    3.6691    1.0000 </r>
       <r>    3.7156    1.0000 </r>
       <r>    4.2890    1.0000 </r>
       <r>    4.8813    1.0000 </r>
       <r>    7.4631    0.0000 </r>
       <r>    7.7181    0.0000 </r>
       <r>    7.7406    0.0000 </r>
       <r>    7.7406    0.0000 </r>
       <r>    9.0975    0.0000 </r>
       <r>    9.3339    0.0000 </r>
       <r>    9.8627    0.0000 </r>
       <r>    9.8627    0.0000 </r>
       <r>   10.6315    0.0000 </r>
      </set>
      <set comment="kpoint 30">
       <r>   -4.7372    1.0000 </r>
       <r>   -4.3223    1.0000 </r>
       <r>   -3.6523    1.0000 </r>
       <r>   -3.4775    1.0000 </r>
       <r>   -1.0564    1.0000 </r>
       <r>   -0.8647    1.0000 </r>
       <r>   -0.1035    1.0000 </r>
       <r>    0.3949    1.0000 </r>
       <r>    2.3303    1.0000 </r>
       <r>    2.5196    1.0000 </r>
       <r>    3.2791    1.0000 </r>
       <r>    3.7492    1.0000 </r>
       <r>    3.8068    1.0000 </r>
       <r>    3.8300    1.0000 </r>
       <r>    4.0739    1.0000 </r>
       <r>    4.5663    1.0000 </r>
       <r>    7.9346    0.0000 </r>
       <r>    7.9790    0.0000 </r>
       <r>    8.0127    0.0000 </r>
       <r>    8.4938    0.0000 </r>
       <r>    8.8563    0.0000 </r>
       <r>    8.9637    0.0000 </r>
       <r>    9.2041    0.0000 </r>
       <r>    9.5929    0.0000 </r>
       <r>    9.6850    0.0000 </r>
      </set>
      <set comment="kpoint 31">
       <r>   -4.4288    1.0000 </r>
       <r>   -4.0572    1.0000 </r>
       <r>   -4.0572    1.0000 </r>
       <r>   -3.7597    1.0000 </r>
       <r>   -0.8778    1.0000 </r>
       <r>   -0.5468    1.0000 </r>
       <r>   -0.5468    1.0000 </r>
       <r>   -0.1213    1.0000 </r>
       <r>    2.6582    1.0000 </r>
       <r>    2.9901    1.0000 </r>
       <r>    2.9901    1.0000 </r>
       <r>    3.4253    1.0000 </r>
       <r>    4.1606    1.0000 </r>
       <r>    4.2386    1.0000 </r>
       <r>    4.2386    1.0000 </r>
       <r>    4.5882    1.0000 </r>
       <r>    7.9025    0.0000 </r>
       <r>    7.9987    0.0000 </r>
       <r>    8.2225    0.0000 </r>
       <r>    8.2225    0.0000 </r>
       <r>    8.9755    0.0000 </r>
       <r>    8.9755    0.0000 </r>
       <r>    9.2968    0.0000 </r>
       <r>    9.3702    0.0000 </r>
       <r>    9.6950    0.0000 </r>
      </set>
      <set comment="kpoint 32">
       <r>   -4.8411    1.0000 </r>
       <r>   -3.7501    1.0000 </r>
       <r>   -3.7501    1.0000 </r>
       <r>   -3.7501    1.0000 </r>
       <r>   -0.8953    1.0000 </r>
       <r>   -0.8953    1.0000 </r>
       <r>   -0.8953    1.0000 </r>
       <r>    0.3616    1.0000 </r>
       <r>    2.9035    1.0000 </r>
       <r>    2.9035    1.0000 </r>
       <r>    2.9035    1.0000 </r>
       <r>    3.8955    1.0000 </r>
       <r>    3.8955    1.0000 </r>
       <r>    3.8955    1.0000 </r>
       <r>    4.6559    1.0000 </r>
       <r>    4.6559    1.0000 </r>
       <r>    7.3466    0.0000 </r>
       <r>    7.6943    0.0000 </r>
       <r>    7.6943    0.0000 </r>
       <r>    7.6943    0.0000 </r>
       <r>    9.1617    0.0000 </r>
       <r>    9.1617    0.0000 </r>
       <r>    9.7240    0.0000 </r>
       <r>    9.7240    0.0000 </r>
       <r>    9.7240    0.0000 </r>
      </set>
      <set comment="kpoint 33">
       <r>   -4.5304    1.0000 </r>
       <r>   -4.1566    1.0000 </r>
       <r>   -3.6817    1.0000 </r>
       <r>   -3.6817    1.0000 </r>
       <r>   -1.1110    1.0000 </r>
       <r>   -1.1110    1.0000 </r>
       <r>   -0.5890    1.0000 </r>
       <r>   -0.1635    1.0000 </r>
       <r>    3.0569    1.0000 </r>
       <r>    3.0569    1.0000 </r>
       <r>    3.7095    1.0000 </r>
       <r>    4.0103    1.0000 </r>
       <r>    4.0103    1.0000 </r>
       <r>    4.1280    1.0000 </r>
       <r>    4.3922    1.0000 </r>
       <r>    4.3978    1.0000 </r>
       <r>    7.5368    0.0000 </r>
       <r>    7.8231    0.0000 </r>
       <r>    8.0373    0.0000 </r>
       <r>    8.0373    0.0000 </r>
       <r>    8.9536    0.0000 </r>
       <r>    9.0001    0.0000 </r>
       <r>    9.0001    0.0000 </r>
       <r>    9.0398    0.0000 </r>
       <r>    9.3820    0.0000 </r>
      </set>
      <set comment="kpoint 34">
       <r>   -4.2622    1.0000 </r>
       <r>   -3.9628    1.0000 </r>
       <r>   -3.9628    1.0000 </r>
       <r>   -3.7882    1.0000 </r>
       <r>   -1.1487    1.0000 </r>
       <r>   -0.9594    1.0000 </r>
       <r>   -0.9594    1.0000 </r>
       <r>   -0.6294    1.0000 </r>
       <r>    3.4556    1.0000 </r>
       <r>    3.7011    1.0000 </r>
       <r>    3.7011    1.0000 </r>
       <r>    4.1277    1.0000 </r>
       <r>    4.2636    1.0000 </r>
       <r>    4.2996    1.0000 </r>
       <r>    4.2996    1.0000 </r>
       <r>    4.5520    1.0000 </r>
       <r>    7.4654    0.0000 </r>
       <r>    7.8028    0.0000 </r>
       <r>    7.8028    0.0000 </r>
       <r>    7.8194    0.0000 </r>
       <r>    8.8861    0.0000 </r>
       <r>    8.8861    0.0000 </r>
       <r>    9.0704    0.0000 </r>
       <r>    9.1058    0.0000 </r>
       <r>    9.1165    0.0000 </r>
      </set>
      <set comment="kpoint 35">
       <r>   -4.0678    1.0000 </r>
       <r>   -3.8933    1.0000 </r>
       <r>   -3.8933    1.0000 </r>
       <r>   -3.8933    1.0000 </r>
       <r>   -1.1975    1.0000 </r>
       <r>   -1.1975    1.0000 </r>
       <r>   -1.1975    1.0000 </r>
       <r>   -1.0091    1.0000 </r>
       <r>    4.1704    1.0000 </r>
       <r>    4.1704    1.0000 </r>
       <r>    4.1704    1.0000 </r>
       <r>    4.3791    1.0000 </r>
       <r>    4.3791    1.0000 </r>
       <r>    4.3791    1.0000 </r>
       <r>    4.4814    1.0000 </r>
       <r>    4.4814    1.0000 </r>
       <r>    7.1470    0.0000 </r>
       <r>    7.4023    0.0000 </r>
       <r>    7.4023    0.0000 </r>
       <r>    7.4023    0.0000 </r>
       <r>    8.9480    0.0000 </r>
       <r>    8.9480    0.0000 </r>
       <r>    8.9480    0.0000 </r>
       <r>    9.0339    0.0000 </r>
       <r>    9.0339    0.0000 </r>
      </set>
     </set>
    </set>
   </array>
  </eigenvalues>
  <separator name="orbital magnetization" >
   <v name="MAGDIPOLOUT">      0.00000000      0.00000000      0.00000000</v>
  </separator>
  <dos>
   <i name="efermi">      5.95218100 </i>
   <total>
    <array>
     <dimension dim="1">gridpoints</dimension>
     <dimension dim="2">spin</dimension>
     <field>energy</field>
     <field>total</field>
     <field>integrated</field>
     <set>
      <set comment="spin 1">
       <r>    -7.1933     0.0000     0.0000 </r>
       <r>    -7.1296     0.0000     0.0000 </r>
       <r>    -7.0659     0.0000     0.0000 </r>
       <r>    -7.0022     0.0000     0.0000 </r>
       <r>    -6.9385     0.0000     0.0000 </r>
       <r>    -6.8748     0.0000     0.0000 </r>
       <r>    -6.8111     0.0000     0.0000 </r>
       <r>    -6.7474     0.0000     0.0000 </r>
       <r>    -6.6837     0.0000     0.0000 </r>
       <r>    -6.6200     0.0000     0.0000 </r>
       <r>    -6.5563     0.0000     0.0000 </r>
       <r>    -6.4926     0.0000     0.0000 </r>
       <r>    -6.4289     0.0000     0.0000 </r>
       <r>    -6.3652     0.0005     0.0000 </r>
       <r>    -6.3016     0.0057     0.0004 </r>
       <r>    -6.2379     0.0360     0.0027 </r>
       <r>    -6.1742     0.1313     0.0111 </r>
       <r>    -6.1105     0.2905     0.0296 </r>
       <r>    -6.0468     0.4344     0.0572 </r>
       <r>    -5.9831     0.5684     0.0934 </r>
       <r>    -5.9194     0.7491     0.1411 </r>
       <r>    -5.8557     0.8104     0.1928 </r>
       <r>    -5.7920     0.7619     0.2413 </r>
       <r>    -5.7283     0.9030     0.2988 </r>
       <r>    -5.6646     1.1186     0.3700 </r>
       <r>    -5.6009     1.1468     0.4431 </r>
       <r>    -5.5372     1.1423     0.5158 </r>
       <r>    -5.4735     1.2341     0.5944 </r>
       <r>    -5.4098     1.1647     0.6686 </r>
       <r>    -5.3462     1.1354     0.7410 </r>
       <r>    -5.2825     1.4588     0.8339 </r>
       <r>    -5.2188     1.6922     0.9417 </r>
       <r>    -5.1551     1.7017     1.0500 </r>
       <r>    -5.0914     1.6607     1.1558 </r>
       <r>    -5.0277     1.3924     1.2445 </r>
       <r>    -4.9640     1.2254     1.3225 </r>
       <r>    -4.9003     1.6081     1.4250 </r>
       <r>    -4.8366     2.0881     1.5580 </r>
       <r>    -4.7729     2.1770     1.6966 </r>
       <r>    -4.7092     2.0956     1.8301 </r>
       <r>    -4.6455     1.9512     1.9544 </r>
       <r>    -4.5818     1.8328     2.0711 </r>
       <r>    -4.5181     2.0326     2.2006 </r>
       <r>    -4.4544     2.2613     2.3446 </r>
       <r>    -4.3908     2.1584     2.4821 </r>
       <r>    -4.3271     2.0251     2.6111 </r>
       <r>    -4.2634     2.1746     2.7496 </r>
       <r>    -4.1997     2.5397     2.9113 </r>
       <r>    -4.1360     3.1590     3.1126 </r>
       <r>    -4.0723     3.3819     3.3280 </r>
       <r>    -4.0086     3.0369     3.5214 </r>
       <r>    -3.9449     2.9358     3.7084 </r>
       <r>    -3.8812     2.9739     3.8978 </r>
       <r>    -3.8175     2.9107     4.0832 </r>
       <r>    -3.7538     3.1564     4.2842 </r>
       <r>    -3.6901     3.7252     4.5215 </r>
       <r>    -3.6264     3.8558     4.7671 </r>
       <r>    -3.5627     3.1325     4.9666 </r>
       <r>    -3.4990     2.7155     5.1396 </r>
       <r>    -3.4353     3.0798     5.3357 </r>
       <r>    -3.3717     3.8033     5.5780 </r>
       <r>    -3.3080     4.0194     5.8340 </r>
       <r>    -3.2443     2.9860     6.0242 </r>
       <r>    -3.1806     1.9429     6.1479 </r>
       <r>    -3.1169     1.6700     6.2543 </r>
       <r>    -3.0532     1.5507     6.3531 </r>
       <r>    -2.9895     1.6246     6.4565 </r>
       <r>    -2.9258     2.2377     6.5991 </r>
       <r>    -2.8621     3.1131     6.7974 </r>
       <r>    -2.7984     3.4293     7.0158 </r>
       <r>    -2.7347     3.0181     7.2080 </r>
       <r>    -2.6710     2.5174     7.3684 </r>
       <r>    -2.6073     1.8555     7.4865 </r>
       <r>    -2.5436     1.1057     7.5570 </r>
       <r>    -2.4799     0.7204     7.6028 </r>
       <r>    -2.4163     0.7098     7.6481 </r>
       <r>    -2.3526     0.7720     7.6972 </r>
       <r>    -2.2889     0.7913     7.7476 </r>
       <r>    -2.2252     0.8278     7.8004 </r>
       <r>    -2.1615     0.8929     7.8572 </r>
       <r>    -2.0978     1.0951     7.9270 </r>
       <r>    -2.0341     1.3649     8.0139 </r>
       <r>    -1.9704     1.3867     8.1022 </r>
       <r>    -1.9067     1.0656     8.1701 </r>
       <r>    -1.8430     0.6877     8.2139 </r>
       <r>    -1.7793     0.4780     8.2443 </r>
       <r>    -1.7156     0.5037     8.2764 </r>
       <r>    -1.6519     0.5792     8.3133 </r>
       <r>    -1.5882     0.5539     8.3486 </r>
       <r>    -1.5245     0.5637     8.3845 </r>
       <r>    -1.4609     0.7632     8.4331 </r>
       <r>    -1.3972     1.4852     8.5277 </r>
       <r>    -1.3335     2.9940     8.7184 </r>
       <r>    -1.2698     4.6974     9.0176 </r>
       <r>    -1.2061     5.1944     9.3485 </r>
       <r>    -1.1424     4.8954     9.6603 </r>
       <r>    -1.0787     4.8490     9.9691 </r>
       <r>    -1.0150     4.4466    10.2523 </r>
       <r>    -0.9513     4.1598    10.5173 </r>
       <r>    -0.8876     4.4180    10.7987 </r>
       <r>    -0.8239     3.8682    11.0451 </r>
       <r>    -0.7602     2.6804    11.2158 </r>
       <r>    -0.6965     2.2902    11.3617 </r>
       <r>    -0.6328     2.6314    11.5293 </r>
       <r>    -0.5691     3.4859    11.7513 </r>
       <r>    -0.5055     4.0915    12.0119 </r>
       <r>    -0.4418     3.3104    12.2227 </r>
       <r>    -0.3781     2.1595    12.3603 </r>
       <r>    -0.3144     1.5738    12.4605 </r>
       <r>    -0.2507     1.3019    12.5434 </r>
       <r>    -0.1870     1.7779    12.6567 </r>
       <r>    -0.1233     2.8011    12.8351 </r>
       <r>    -0.0596     2.8347    13.0157 </r>
       <r>     0.0041     1.7613    13.1278 </r>
       <r>     0.0678     0.8845    13.1842 </r>
       <r>     0.1315     0.7490    13.2319 </r>
       <r>     0.1952     1.0725    13.3002 </r>
       <r>     0.2589     1.2176    13.3777 </r>
       <r>     0.3226     1.4973    13.4731 </r>
       <r>     0.3863     2.4257    13.6276 </r>
       <r>     0.4499     2.7436    13.8024 </r>
       <r>     0.5136     1.8509    13.9203 </r>
       <r>     0.5773     1.0359    13.9862 </r>
       <r>     0.6410     0.8158    14.0382 </r>
       <r>     0.7047     0.7225    14.0842 </r>
       <r>     0.7684     0.5512    14.1193 </r>
       <r>     0.8321     0.6393    14.1601 </r>
       <r>     0.8958     1.2306    14.2384 </r>
       <r>     0.9595     1.8364    14.3554 </r>
       <r>     1.0232     1.7053    14.4640 </r>
       <r>     1.0869     1.0304    14.5296 </r>
       <r>     1.1506     0.5881    14.5671 </r>
       <r>     1.2143     0.5240    14.6005 </r>
       <r>     1.2780     0.8731    14.6561 </r>
       <r>     1.3417     1.3886    14.7445 </r>
       <r>     1.4053     1.7411    14.8554 </r>
       <r>     1.4690     2.4168    15.0094 </r>
       <r>     1.5327     4.0747    15.2689 </r>
       <r>     1.5964     5.7662    15.6362 </r>
       <r>     1.6601     5.8511    16.0088 </r>
       <r>     1.7238     4.8079    16.3151 </r>
       <r>     1.7875     3.4013    16.5317 </r>
       <r>     1.8512     2.5179    16.6921 </r>
       <r>     1.9149     3.5156    16.9160 </r>
       <r>     1.9786     5.5222    17.2677 </r>
       <r>     2.0423     5.8349    17.6394 </r>
       <r>     2.1060     4.1915    17.9063 </r>
       <r>     2.1697     2.9881    18.0967 </r>
       <r>     2.2334     3.3722    18.3115 </r>
       <r>     2.2971     4.7901    18.6166 </r>
       <r>     2.3607     5.6164    18.9743 </r>
       <r>     2.4244     4.6649    19.2714 </r>
       <r>     2.4881     3.4156    19.4890 </r>
       <r>     2.5518     3.7804    19.7298 </r>
       <r>     2.6155     5.1550    20.0581 </r>
       <r>     2.6792     5.8714    20.4321 </r>
       <r>     2.7429     5.4169    20.7771 </r>
       <r>     2.8066     4.8499    21.0860 </r>
       <r>     2.8703     5.3031    21.4238 </r>
       <r>     2.9340     6.1915    21.8181 </r>
       <r>     2.9977     6.5684    22.2365 </r>
       <r>     3.0614     6.4222    22.6455 </r>
       <r>     3.1251     5.9567    23.0249 </r>
       <r>     3.1888     5.4022    23.3690 </r>
       <r>     3.2525     5.3877    23.7122 </r>
       <r>     3.3162     6.0425    24.0970 </r>
       <r>     3.3798     6.5519    24.5143 </r>
       <r>     3.4435     5.8059    24.8841 </r>
       <r>     3.5072     4.3645    25.1621 </r>
       <r>     3.5709     4.3575    25.4397 </r>
       <r>     3.6346     5.8665    25.8133 </r>
       <r>     3.6983     6.8296    26.2483 </r>
       <r>     3.7620     6.3287    26.6514 </r>
       <r>     3.8257     5.3819    26.9942 </r>
       <r>     3.8894     4.2272    27.2635 </r>
       <r>     3.9531     3.1964    27.4671 </r>
       <r>     4.0168     3.7510    27.7060 </r>
       <r>     4.0805     5.3684    28.0479 </r>
       <r>     4.1442     6.3819    28.4544 </r>
       <r>     4.2079     6.3109    28.8564 </r>
       <r>     4.2716     5.3502    29.1971 </r>
       <r>     4.3352     4.1376    29.4607 </r>
       <r>     4.3989     3.3560    29.6744 </r>
       <r>     4.4626     3.1128    29.8727 </r>
       <r>     4.5263     3.3495    30.0860 </r>
       <r>     4.5900     3.9778    30.3394 </r>
       <r>     4.6537     4.1868    30.6061 </r>
       <r>     4.7174     3.4845    30.8280 </r>
       <r>     4.7811     2.4645    30.9850 </r>
       <r>     4.8448     1.6357    31.0892 </r>
       <r>     4.9085     1.3448    31.1748 </r>
       <r>     4.9722     1.8054    31.2898 </r>
       <r>     5.0359     2.1806    31.4287 </r>
       <r>     5.0996     1.7386    31.5394 </r>
       <r>     5.1633     1.1120    31.6103 </r>
       <r>     5.2270     1.0115    31.6747 </r>
       <r>     5.2906     1.2165    31.7522 </r>
       <r>     5.3543     1.2119    31.8294 </r>
       <r>     5.4180     0.9889    31.8924 </r>
       <r>     5.4817     0.6950    31.9366 </r>
       <r>     5.5454     0.3995    31.9621 </r>
       <r>     5.6091     0.2711    31.9793 </r>
       <r>     5.6728     0.2033    31.9923 </r>
       <r>     5.7365     0.0949    31.9983 </r>
       <r>     5.8002     0.0231    31.9998 </r>
       <r>     5.8639     0.0029    32.0000 </r>
       <r>     5.9276     0.0002    32.0000 </r>
       <r>     5.9913     0.0000    32.0000 </r>
       <r>     6.0550     0.0004    32.0000 </r>
       <r>     6.1187     0.0062    32.0004 </r>
       <r>     6.1824     0.0412    32.0031 </r>
       <r>     6.2460     0.1311    32.0114 </r>
       <r>     6.3097     0.2215    32.0255 </r>
       <r>     6.3734     0.2750    32.0430 </r>
       <r>     6.4371     0.4146    32.0694 </r>
       <r>     6.5008     0.7987    32.1203 </r>
       <r>     6.5645     1.3549    32.2066 </r>
       <r>     6.6282     1.6977    32.3147 </r>
       <r>     6.6919     1.6854    32.4221 </r>
       <r>     6.7556     1.4714    32.5158 </r>
       <r>     6.8193     1.5172    32.6124 </r>
       <r>     6.8830     2.0526    32.7432 </r>
       <r>     6.9467     2.4305    32.8980 </r>
       <r>     7.0104     2.2228    33.0396 </r>
       <r>     7.0741     1.9130    33.1614 </r>
       <r>     7.1378     1.7184    33.2709 </r>
       <r>     7.2014     1.7874    33.3847 </r>
       <r>     7.2651     2.9586    33.5731 </r>
       <r>     7.3288     4.6106    33.8668 </r>
       <r>     7.3925     4.9645    34.1830 </r>
       <r>     7.4562     4.3591    34.4607 </r>
       <r>     7.5199     3.5347    34.6858 </r>
       <r>     7.5836     2.8629    34.8681 </r>
       <r>     7.6473     3.5907    35.0968 </r>
       <r>     7.7110     5.3654    35.4386 </r>
       <r>     7.7747     6.5412    35.8552 </r>
       <r>     7.8384     6.6061    36.2760 </r>
       <r>     7.9021     6.1988    36.6708 </r>
       <r>     7.9658     6.1610    37.0632 </r>
       <r>     8.0295     6.1118    37.4525 </r>
       <r>     8.0932     5.3968    37.7962 </r>
       <r>     8.1568     4.9679    38.1127 </r>
       <r>     8.2205     5.1827    38.4428 </r>
       <r>     8.2842     5.6861    38.8049 </r>
       <r>     8.3479     6.2619    39.2038 </r>
       <r>     8.4116     5.9979    39.5858 </r>
       <r>     8.4753     5.3123    39.9242 </r>
       <r>     8.5390     4.9491    40.2394 </r>
       <r>     8.6027     4.1993    40.5068 </r>
       <r>     8.6664     3.4452    40.7263 </r>
       <r>     8.7301     3.7628    40.9659 </r>
       <r>     8.7938     4.8926    41.2776 </r>
       <r>     8.8575     6.0680    41.6641 </r>
       <r>     8.9212     7.2372    42.1250 </r>
       <r>     8.9849     8.0496    42.6377 </r>
       <r>     9.0486     7.7753    43.1330 </r>
       <r>     9.1122     7.2675    43.5959 </r>
       <r>     9.1759     6.9305    44.0373 </r>
       <r>     9.2396     6.2982    44.4384 </r>
       <r>     9.3033     6.1386    44.8294 </r>
       <r>     9.3670     6.8835    45.2679 </r>
       <r>     9.4307     7.3084    45.7334 </r>
       <r>     9.4944     6.6759    46.1586 </r>
       <r>     9.5581     5.7189    46.5228 </r>
       <r>     9.6218     5.1399    46.8502 </r>
       <r>     9.6855     4.7069    47.1500 </r>
       <r>     9.7492     4.1422    47.4138 </r>
       <r>     9.8129     4.0744    47.6734 </r>
       <r>     9.8766     4.2201    47.9421 </r>
       <r>     9.9403     3.7035    48.1780 </r>
       <r>    10.0040     3.2206    48.3832 </r>
       <r>    10.0677     3.0584    48.5780 </r>
       <r>    10.1313     2.8518    48.7596 </r>
       <r>    10.1950     2.6898    48.9309 </r>
       <r>    10.2587     2.7308    49.1049 </r>
       <r>    10.3224     2.9921    49.2954 </r>
       <r>    10.3861     3.1374    49.4953 </r>
       <r>    10.4498     2.6787    49.6659 </r>
       <r>    10.5135     1.8346    49.7827 </r>
       <r>    10.5772     1.1907    49.8586 </r>
       <r>    10.6409     0.8101    49.9102 </r>
       <r>    10.7046     0.4544    49.9391 </r>
       <r>    10.7683     0.1761    49.9503 </r>
       <r>    10.8320     0.1305    49.9587 </r>
       <r>    10.8957     0.2314    49.9734 </r>
       <r>    10.9594     0.2486    49.9892 </r>
       <r>    11.0231     0.1313    49.9976 </r>
       <r>    11.0867     0.0334    49.9997 </r>
       <r>    11.1504     0.0041    50.0000 </r>
       <r>    11.2141     0.0002    50.0000 </r>
       <r>    11.2778     0.0000    50.0000 </r>
       <r>    11.3415     0.0000    50.0000 </r>
       <r>    11.4052     0.0000    50.0000 </r>
       <r>    11.4689     0.0000    50.0000 </r>
       <r>    11.5326     0.0000    50.0000 </r>
       <r>    11.5963     0.0000    50.0000 </r>
       <r>    11.6600     0.0000    50.0000 </r>
       <r>    11.7237     0.0000    50.0000 </r>
       <r>    11.7874     0.0000    50.0000 </r>
       <r>    11.8511     0.0000    50.0000 </r>
       <r>    11.9148     0.0000    50.0000 </r>
      </set>
     </set>
    </array>
   </total>
  </dos>
 </calculation>
 <structure name="finalpos" >
  <crystal>
   <varray name="basis" >
    <v>       5.46544657       0.00000000      -0.00000000 </v>
    <v>      -0.00000000       5.46544657       0.00000000 </v>
    <v>      -0.00000000       0.00000000       5.46544657 </v>
   </varray>
   <i name="volume">    163.25893455 </i>
   <varray name="rec_basis" >
    <v>       0.18296767       0.00000000       0.00000000 </v>
    <v>      -0.00000000       0.18296767      -0.00000000 </v>
    <v>       0.00000000      -0.00000000       0.18296767 </v>
   </varray>
  </crystal>
  <varray name="positions" >
   <v>      -0.00000000      -0.00000000      -0.00000000 </v>
   <v>       0.00000000       0.50000000       0.50000000 </v>
   <v>       0.50000000      -0.00000000       0.50000000 </v>
   <v>       0.50000000       0.50000000      -0.00000000 </v>
   <v>       0.25000000       0.25000000       0.25000000 </v>
   <v>       0.75000000       0.75000000       0.25000000 </v>
   <v>       0.75000000       0.25000000       0.75000000 </v>
   <v>       0.25000000       0.75000000       0.75000000 </v>
  </varray>
 </structure>
</modeling>
