diamond Si                              
   5.43100000000000     
     1.021190    0.000000   -0.000000
     0.000000    1.021190   -0.000000
    -0.000000   -0.000000    1.021190
   Si
     8
Direct
  0.000000  0.000000  0.000000
  0.000000  0.500000  0.500000
  0.500000  0.000000  0.500000
  0.500000  0.500000  0.000000
  0.250000  0.250000  0.250000
  0.750000  0.750000  0.250000
  0.750000  0.250000  0.750000
  0.250000  0.750000  0.750000
 
   56   56   56
 -30.691     -26.117     -13.425      4.5989      24.230      41.817      54.649      61.444      62.394      58.825    
  52.655      45.725      38.905      32.565      26.923      22.073      18.016      14.695      12.020      9.8915    
  8.2106      6.8916      5.8637      5.0711      4.4713      4.0333      3.7350      3.5616      3.5047      3.5616    
  3.7350      4.0333      4.4713      5.0711      5.8637      6.8916      8.2106      9.8915      12.020      14.695    
  18.016      22.073      26.923      32.565      38.905      45.725      52.655      58.825      62.394      61.444    
  54.649      41.817      24.230      4.5989     -13.425     -26.117     -26.117     -21.701     -9.4572      7.9049    
  26.766      43.584      55.738      62.008      62.606      58.848      52.618      45.695      38.895      32.577    
  26.955      22.121      18.075      14.760      12.088      9.9597      8.2776      6.9568      5.9269      5.1324    
  4.5311      4.0918      3.7926      3.6186      3.5616      3.6186      3.7926      4.0918      4.5311      5.1324    
  5.9269      6.9568      8.2776      9.9597      12.088      14.760      18.075      22.121      26.955      32.577    
  38.895      45.695      52.618      58.848      62.606      62.008      55.738      43.584      26.766      7.9049    
 -9.4572     -21.701     -13.425     -9.4572      1.5209      17.017      33.711      48.371      58.637      63.453    
  63.092      58.837      52.470      45.583      38.848      32.602      27.045      22.261      18.249      14.955    
  12.292      10.165      8.4805      7.1547      6.1191      5.3191      4.7130      4.2701      3.9682      3.7926    
  3.7350      3.7926      3.9682      4.2701      4.7130      5.3191      6.1191      7.1547      8.4805      10.165    
  12.292      14.955      18.249      22.261      27.045      32.602      38.848      45.583      52.470      58.837    
  63.092      63.453      58.637      48.371      33.711      17.017      1.5209     -9.4572      4.5989      7.9049    
  17.017      29.770      43.293      54.818      62.369      65.134      63.466      58.587      52.118      45.328    
  38.725      32.614      27.174      22.480      18.532      15.276      12.632      10.512      8.8244      7.4919    
  6.4478      5.6392      5.0256      4.5764      4.2701      4.0918      4.0333      4.0918      4.2701      4.5764    
  5.0256      5.6392      6.4478      7.4919      8.8244      10.512      12.632      15.276      18.532      22.480    
  27.174      32.614      38.725      45.328      52.118      58.587      63.466      65.134      62.369      54.818    
  43.293      29.770      17.017      7.9049      24.230      26.766      33.711      43.293      53.177      61.148    
  65.682      66.241      63.260      57.868      51.447      44.852      38.472      32.575      27.317      22.763    
  18.913      15.719      13.110      11.004      9.3182      7.9797      6.9259      6.1067      5.4830      5.0256    
  4.7130      4.5311      4.4713      4.5311      4.7130      5.0256      5.4830      6.1067      6.9259      7.9797    
  9.3182      11.004      13.110      15.719      18.913      22.763      27.317      32.575      38.472      44.852    
  51.447      57.868      63.260      66.241      65.682      61.148      53.177      43.293      33.711      26.766    
  41.817      43.584      48.371      54.818      61.148      65.717      67.455      66.091      62.115      56.533    
  50.358      44.086      38.041      32.449      27.445      23.089      19.380      16.280      13.727      11.650    
  9.9742      8.6340      7.5720      6.7417      6.1067      5.6392      5.3191      5.1324      5.0711      5.1324    
  5.3191      5.6392      6.1067      6.7417      7.5720      8.6340      9.9742      11.650      13.727      16.280    
  19.380      23.089      27.445      32.449      38.041      44.086      50.358      56.533      62.115      66.091    
  67.455      65.717      61.148      54.818      48.371      43.584      54.649      55.738      58.637      62.369    
  65.682      67.455      67.026      64.346      59.919      54.555      48.800      42.990      37.395      32.204    
  27.534      23.437      19.920      16.953      14.486      12.459      10.809      9.4762      8.4111      7.5720    
  6.9259      6.4478      6.1191      5.9269      5.8637      5.9269      6.1191      6.4478      6.9259      7.5720    
  8.4111      9.4762      10.809      12.459      14.486      16.953      19.920      23.437      27.534      32.204    
  37.395      42.990      48.800      54.555      59.919      64.346      67.026      67.455      65.682      62.369    
  58.637      55.738      61.444      62.008      63.453      65.134      66.241      66.091      64.346      61.107    
  56.833      51.959      46.779      41.561      36.524      31.825      27.566      23.795      20.525      17.738    
  15.395      13.447      11.844      10.534      9.4762      8.6340      7.9797      7.4919      7.1547      6.9568    
  6.8916      6.9568      7.1547      7.4919      7.9797      8.6340      9.4762      10.534      11.844      13.447    
  15.395      17.738      20.525      23.795      27.566      31.825      36.524      41.561      46.779      51.959    
  56.833      61.107      64.346      66.091      66.241      65.134      63.453      62.008      62.394      62.606    
  63.092      63.466      63.260      62.115      59.919      56.833      53.073      48.840      44.356      39.832    
  35.441      31.312      27.534      24.154      21.191      18.636      16.463      14.634      13.107      11.844    
  10.809      9.9742      9.3182      8.8244      8.4805      8.2776      8.2106      8.2776      8.4805      8.8244    
  9.3182      9.9742      10.809      11.844      13.107      14.634      16.463      18.636      21.191      24.154    
  27.534      31.312      35.441      39.832      44.356      48.840      53.073      56.833      59.919      62.115    
  63.260      63.466      63.092      62.606      58.825      58.848      58.837      58.587      57.868      56.533    
  54.555      51.959      48.840      45.343      41.632      37.866      34.181      30.682      27.445      24.519    
  21.924      19.660      17.709      16.044      14.634      13.447      12.459      11.650      11.004      10.512    
  10.165      9.9597      9.8915      9.9597      10.165      10.512      11.004      11.650      12.459      13.447    
  14.634      16.044      17.709      19.660      21.924      24.519      27.445      30.682      34.181      37.866    
  41.632      45.343      48.840      51.959      54.555      56.533      57.868      58.587      58.837      58.848    
  52.655      52.618      52.470      52.118      51.447      50.358      48.800      46.779      44.356      41.632    
  38.721      35.740      32.792      29.962      27.317      24.900      22.734      20.822      19.154      17.709    
  16.463      15.395      14.486      13.727      13.110      12.632      12.292      12.088      12.020      12.088    
  12.292      12.632      13.110      13.727      14.486      15.395      16.463      17.709      19.154      20.822    
  22.734      24.900      27.317      29.962      32.792      35.740      38.721      41.632      44.356      46.779    
  48.800      50.358      51.447      52.118      52.470      52.618      45.725      45.695      45.583      45.328    
  44.852      44.086      42.990      41.561      39.832      37.866      35.740      33.535      31.329      29.191    
  27.174      25.316      23.638      22.143      20.822      19.660      18.636      17.738      16.953      16.280    
  15.719      15.276      14.955      14.760      14.695      14.760      14.955      15.276      15.719      16.280    
  16.953      17.738      18.636      19.660      20.822      22.143      23.638      25.316      27.174      29.191    
  31.329      33.535      35.740      37.866      39.832      41.561      42.990      44.086      44.852      45.328    
  45.583      45.695      38.905      38.895      38.848      38.725      38.472      38.041      37.395      36.524    
  35.441      34.181      32.792      31.329      29.851      28.409      27.045      25.788      24.652      23.638    
  22.734      21.924      21.191      20.525      19.920      19.380      18.913      18.532      18.249      18.075    
  18.016      18.075      18.249      18.532      18.913      19.380      19.920      20.525      21.191      21.924    
  22.734      23.638      24.652      25.788      27.045      28.409      29.851      31.329      32.792      34.181    
  35.441      36.524      37.395      38.041      38.472      38.725      38.848      38.895      32.565      32.577    
  32.602      32.614      32.575      32.449      32.204      31.825      31.312      30.682      29.962      29.191    
  28.409      27.654      26.955      26.332      25.788      25.316      24.900      24.519      24.154      23.795    
  23.437      23.089      22.763      22.480      22.261      22.121      22.073      22.121      22.261      22.480    
  22.763      23.089      23.437      23.795      24.154      24.519      24.900      25.316      25.788      26.332    
  26.955      27.654      28.409      29.191      29.962      30.682      31.312      31.825      32.204      32.449    
  32.575      32.614      32.602      32.577      26.923      26.955      27.045      27.174      27.317      27.445    
  27.534      27.566      27.534      27.445      27.317      27.174      27.045      26.955      26.923      26.955    
  27.045      27.174      27.317      27.445      27.534      27.566      27.534      27.445      27.317      27.174    
  27.045      26.955      26.923      26.955      27.045      27.174      27.317      27.445      27.534      27.566    
  27.534      27.445      27.317      27.174      27.045      26.955      26.923      26.955      27.045      27.174    
  27.317      27.445      27.534      27.566      27.534      27.445      27.317      27.174      27.045      26.955    
  22.073      22.121      22.261      22.480      22.763      23.089      23.437      23.795      24.154      24.519    
  24.900      25.316      25.788      26.332      26.955      27.654      28.409      29.191      29.962      30.682    
  31.312      31.825      32.204      32.449      32.575      32.614      32.602      32.577      32.565      32.577    
  32.602      32.614      32.575      32.449      32.204      31.825      31.312      30.682      29.962      29.191    
  28.409      27.654      26.955      26.332      25.788      25.316      24.900      24.519      24.154      23.795    
  23.437      23.089      22.763      22.480      22.261      22.121      18.016      18.075      18.249      18.532    
  18.913      19.380      19.920      20.525      21.191      21.924      22.734      23.638      24.652      25.788    
  27.045      28.409      29.851      31.329      32.792      34.181      35.441      36.524      37.395      38.041    
  38.472      38.725      38.848      38.895      38.905      38.895      38.848      38.725      38.472      38.041    
  37.395      36.524      35.441      34.181      32.792      31.329      29.851      28.409      27.045      25.788    
  24.652      23.638      22.734      21.924      21.191      20.525      19.920      19.380      18.913      18.532    
  18.249      18.075      14.695      14.760      14.955      15.276      15.719      16.280      16.953      17.738    
  18.636      19.660      20.822      22.143      23.638      25.316      27.174      29.191      31.329      33.535    
  35.740      37.866      39.832      41.561      42.990      44.086      44.852      45.328      45.583      45.695    
  45.725      45.695      45.583      45.328      44.852      44.086      42.990      41.561      39.832      37.866    
  35.740      33.535      31.329      29.191      27.174      25.316      23.638      22.143      20.822      19.660    
  18.636      17.738      16.953      16.280      15.719      15.276      14.955      14.760      12.020      12.088    
  12.292      12.632      13.110      13.727      14.486      15.395      16.463      17.709      19.154      20.822    
  22.734      24.900      27.317      29.962      32.792      35.740      38.721      41.632      44.356      46.779    
  48.800      50.358      51.447      52.118      52.470      52.618      52.655      52.618      52.470      52.118    
  51.447      50.358      48.800      46.779      44.356      41.632      38.721      35.740      32.792      29.962    
  27.317      24.900      22.734      20.822      19.154      17.709      16.463      15.395      14.486      13.727    
  13.110      12.632      12.292      12.088      9.8915      9.9597      10.165      10.512      11.004      11.650    
  12.459      13.447      14.634      16.044      17.709      19.660      21.924      24.519      27.445      30.682    
  34.181      37.866      41.632      45.343      48.840      51.959      54.555      56.533      57.868      58.587    
  58.837      58.848      58.825      58.848      58.837      58.587      57.868      56.533      54.555      51.959    
  48.840      45.343      41.632      37.866      34.181      30.682      27.445      24.519      21.924      19.660    
  17.709      16.044      14.634      13.447      12.459      11.650      11.004      10.512      10.165      9.9597    
  8.2106      8.2776      8.4805      8.8244      9.3182      9.9742      10.809      11.844      13.107      14.634    
  16.463      18.636      21.191      24.154      27.534      31.312      35.441      39.832      44.356      48.840    
  53.073      56.833      59.919      62.115      63.260      63.466      63.092      62.606      62.394      62.606    
  63.092      63.466      63.260      62.115      59.919      56.833      53.073      48.840      44.356      39.832    
  35.441      31.312      27.534      24.154      21.191      18.636      16.463      14.634      13.107      11.844    
  10.809      9.9742      9.3182      8.8244      8.4805      8.2776      6.8916      6.9568      7.1547      7.4919    
  7.9797      8.6340      9.4762      10.534      11.844      13.447      15.395      17.738      20.525      23.795    
  27.566      31.825      36.524      41.561      46.779      51.959      56.833      61.107      64.346      66.091    
  66.241      65.134      63.453      62.008      61.444      62.008      63.453      65.134      66.241      66.091    
  64.346      61.107      56.833      51.959      46.779      41.561      36.524      31.825      27.566      23.795    
  20.525      17.738      15.395      13.447      11.844      10.534      9.4762      8.6340      7.9797      7.4919    
  7.1547      6.9568      5.8637      5.9269      6.1191      6.4478      6.9259      7.5720      8.4111      9.4762    
  10.809      12.459      14.486      16.953      19.920      23.437      27.534      32.204      37.395      42.990    
  48.800      54.555      59.919      64.346      67.026      67.455      65.682      62.369      58.637      55.738    
  54.649      55.738      58.637      62.369      65.682      67.455      67.026      64.346      59.919      54.555    
  48.800      42.990      37.395      32.204      27.534      23.437      19.920      16.953      14.486      12.459    
  10.809      9.4762      8.4111      7.5720      6.9259      6.4478      6.1191      5.9269      5.0711      5.1324    
  5.3191      5.6392      6.1067      6.7417      7.5720      8.6340      9.9742      11.650      13.727      16.280    
  19.380      23.089      27.445      32.449      38.041      44.086      50.358      56.533      62.115      66.091    
  67.455      65.717      61.148      54.818      48.371      43.584      41.817      43.584      48.371      54.818    
  61.148      65.717      67.455      66.091      62.115      56.533      50.358      44.086      38.041      32.449    
  27.445      23.089      19.380      16.280      13.727      11.650      9.9742      8.6340      7.5720      6.7417    
  6.1067      5.6392      5.3191      5.1324      4.4713      4.5311      4.7130      5.0256      5.4830      6.1067    
  6.9259      7.9797      9.3182      11.004      13.110      15.719      18.913      22.763      27.317      32.575    
  38.472      44.852      51.447      57.868      63.260      66.241      65.682      61.148      53.177      43.293    
  33.711      26.766      24.230      26.766      33.711      43.293      53.177      61.148      65.682      66.241    
  63.260      57.868      51.447      44.852      38.472      32.575      27.317      22.763      18.913      15.719    
  13.110      11.004      9.3182      7.9797      6.9259      6.1067      5.4830      5.0256      4.7130      4.5311    
  4.0333      4.0918      4.2701      4.5764      5.0256      5.6392      6.4478      7.4919      8.8244      10.512    
  12.632      15.276      18.532      22.480      27.174      32.614      38.725      45.328      52.118      58.587    
  63.466      65.134      62.369      54.818      43.293      29.770      17.017      7.9049      4.5989      7.9049    
  17.017      29.770      43.293      54.818      62.369      65.134      63.466      58.587      52.118      45.328    
  38.725      32.614      27.174      22.480      18.532      15.276      12.632      10.512      8.8244      7.4919    
  6.4478      5.6392      5.0256      4.5764      4.2701      4.0918      3.7350      3.7926      3.9682      4.2701    
  4.7130      5.3191      6.1191      7.1547      8.4805      10.165      12.292      14.955      18.249      22.261    
  27.045      32.602      38.848      45.583      52.470      58.837      63.092      63.453      58.637      48.371    
  33.711      17.017      1.5209     -9.4572     -13.425     -9.4572      1.5209      17.017      33.711      48.371    
  58.637      63.453      63.092      58.837      52.470      45.583      38.848      32.602      27.045      22.261    
  18.249      14.955      12.292      10.165      8.4805      7.1547      6.1191      5.3191      4.7130      4.2701    
  3.9682      3.7926      3.5616      3.6186      3.7926      4.0918      4.5311      5.1324      5.9269      6.9568    
  8.2776      9.9597      12.088      14.760      18.075      22.121      26.955      32.577      38.895      45.695    
  52.618      58.848      62.606      62.008      55.738      43.584      26.766      7.9049     -9.4572     -21.701    
 -26.117     -21.701     -9.4572      7.9049      26.766      43.584      55.738      62.008      62.606      58.848    
  52.618      45.695      38.895      32.577      26.955      22.121      18.075      14.760      12.088      9.9597    
  8.2776      6.9568      5.9269      5.1324      4.5311      4.0918      3.7926      3.6186      3.5047      3.5616    
  3.7350      4.0333      4.4713      5.0711      5.8637      6.8916      8.2106      9.8915      12.020      14.695    
  18.016      22.073      26.923      32.565      38.905      45.725      52.655      58.825      62.394      61.444    
  54.649      41.817      24.230      4.5989     -13.425     -26.117     -30.691     -26.117     -13.425      4.5989    
  24.230      41.817      54.649      61.444      62.394      58.825      52.655      45.725      38.905      32.565    
  26.923      22.073      18.016      14.695      12.020      9.8915      8.2106      6.8916      5.8637      5.0711    
  4.4713      4.0333      3.7350      3.5616      3.5616      3.6186      3.7926      4.0918      4.5311      5.1324    
  5.9269      6.9568      8.2776      9.9597      12.088      14.760      18.075      22.121      26.955      32.577    
  38.895      45.695      52.618      58.848      62.606      62.008      55.738      43.584      26.766      7.9049    
 -9.4572     -21.701     -26.117     -21.701     -9.4572      7.9049      26.766      43.584      55.738      62.008    
  62.606      58.848      52.618      45.695      38.895      32.577      26.955      22.121      18.075      14.760    
  12.088      9.9597      8.2776      6.9568      5.9269      5.1324      4.5311      4.0918      3.7926      3.6186    
  3.7350      3.7926      3.9682      4.2701      4.7130      5.3191      6.1191      7.1547      8.4805      10.165    
  12.292      14.955      18.249      22.261      27.045      32.602      38.848      45.583      52.470      58.837    
  63.092      63.453      58.637      48.371      33.711      17.017      1.5209     -9.4572     -13.425     -9.4572    
  1.5209      17.017      33.711      48.371      58.637      63.453      63.092      58.837      52.470      45.583    
  38.848      32.602      27.045      22.261      18.249      14.955      12.292      10.165      8.4805      7.1547    
  6.1191      5.3191      4.7130      4.2701      3.9682      3.7926      4.0333      4.0918      4.2701      4.5764    
  5.0256      5.6392      6.4478      7.4919      8.8244      10.512      12.632      15.276      18.532      22.480    
  27.174      32.614      38.725      45.328      52.118      58.587      63.466      65.134      62.369      54.818    
  43.293      29.770      17.017      7.9049      4.5989      7.9049      17.017      29.770      43.293      54.818    
  62.369      65.134      63.466      58.587      52.118      45.328      38.725      32.614      27.174      22.480    
  18.532      15.276      12.632      10.512      8.8244      7.4919      6.4478      5.6392      5.0256      4.5764    
  4.2701      4.0918      4.4713      4.5311      4.7130      5.0256      5.4830      6.1067      6.9259      7.9797    
  9.3182      11.004      13.110      15.719      18.913      22.763      27.317      32.575      38.472      44.852    
  51.447      57.868      63.260      66.241      65.682      61.148      53.177      43.293      33.711      26.766    
  24.230      26.766      33.711      43.293      53.177      61.148      65.682      66.241      63.260      57.868    
  51.447      44.852      38.472      32.575      27.317      22.763      18.913      15.719      13.110      11.004    
  9.3182      7.9797      6.9259      6.1067      5.4830      5.0256      4.7130      4.5311      5.0711      5.1324    
  5.3191      5.6392      6.1067      6.7417      7.5720      8.6340      9.9742      11.650      13.727      16.280    
  19.380      23.089      27.445      32.449      38.041      44.086      50.358      56.533      62.115      66.091    
  67.455      65.717      61.148      54.818      48.371      43.584      41.817      43.584      48.371      54.818    
  61.148      65.717      67.455      66.091      62.115      56.533      50.358      44.086      38.041      32.449    
  27.445      23.089      19.380      16.280      13.727      11.650      9.9742      8.6340      7.5720      6.7417    
  6.1067      5.6392      5.3191      5.1324      5.8637      5.9269      6.1191      6.4478      6.9259      7.5720    
  8.4111      9.4762      10.809      12.459      14.486      16.953      19.920      23.437      27.534      32.204    
  37.395      42.990      48.800      54.555      59.919      64.346      67.026      67.455      65.682      62.369    
  58.637      55.738      54.649      55.738      58.637      62.369      65.682      67.455      67.026      64.346    
  59.919      54.555      48.800      42.990      37.395      32.204      27.534      23.437      19.920      16.953    
  14.486      12.459      10.809      9.4762      8.4111      7.5720      6.9259      6.4478      6.1191      5.9269    
  6.8916      6.9568      7.1547      7.4919      7.9797      8.6340      9.4762      10.534      11.844      13.447    
  15.395      17.738      20.525      23.795      27.566      31.825      36.524      41.561      46.779      51.959    
  56.833      61.107      64.346      66.091      66.241      65.134      63.453      62.008      61.444      62.008    
  63.453      65.134      66.241      66.091      64.346      61.107      56.833      51.959      46.779      41.561    
  36.524      31.825      27.566      23.795      20.525      17.738      15.395      13.447      11.844      10.534    
  9.4762      8.6340      7.9797      7.4919      7.1547      6.9568      8.2106      8.2776      8.4805      8.8244    
  9.3182      9.9742      10.809      11.844      13.107      14.634      16.463      18.636      21.191      24.154    
  27.534      31.312      35.441      39.832      44.356      48.840      53.073      56.833      59.919      62.115    
  63.260      63.466      63.092      62.606      62.394      62.606      63.092      63.466      63.260      62.115    
  59.919      56.833      53.073      48.840      44.356      39.832      35.441      31.312      27.534      24.154    
  21.191      18.636      16.463      14.634      13.107      11.844      10.809      9.9742      9.3182      8.8244    
  8.4805      8.2776      9.8915      9.9597      10.165      10.512      11.004      11.650      12.459      13.447    
  14.634      16.044      17.709      19.660      21.924      24.519      27.445      30.682      34.181      37.866    
  41.632      45.343      48.840      51.959      54.555      56.533      57.868      58.587      58.837      58.848    
  58.825      58.848      58.837      58.587      57.868      56.533      54.555      51.959      48.840      45.343    
  41.632      37.866      34.181      30.682      27.445      24.519      21.924      19.660      17.709      16.044    
  14.634      13.447      12.459      11.650      11.004      10.512      10.165      9.9597      12.020      12.088    
  12.292      12.632      13.110      13.727      14.486      15.395      16.463      17.709      19.154      20.822    
  22.734      24.900      27.317      29.962      32.792      35.740      38.721      41.632      44.356      46.779    
  48.800      50.358      51.447      52.118      52.470      52.618      52.655      52.618      52.470      52.118    
  51.447      50.358      48.800      46.779      44.356      41.632      38.721      35.740      32.792      29.962    
  27.317      24.900      22.734      20.822      19.154      17.709      16.463      15.395      14.486      13.727    
  13.110      12.632      12.292      12.088      14.695      14.760      14.955      15.276      15.719      16.280    
  16.953      17.738      18.636      19.660      20.822      22.143      23.638      25.316      27.174      29.191    
  31.329      33.535      35.740      37.866      39.832      41.561      42.990      44.086      44.852      45.328    
  45.583      45.695      45.725      45.695      45.583      45.328      44.852      44.086      42.990      41.561    
  39.832      37.866      35.740      33.535      31.329      29.191      27.174      25.316      23.638      22.143    
  20.822      19.660      18.636      17.738      16.953      16.280      15.719      15.276      14.955      14.760    
  18.016      18.075      18.249      18.532      18.913      19.380      19.920      20.525      21.191      21.924    
  22.734      23.638      24.652      25.788      27.045      28.409      29.851      31.329      32.792      34.181    
  35.441      36.524      37.395      38.041      38.472      38.725      38.848      38.895      38.905      38.895    
  38.848      38.725      38.472      38.041      37.395      36.524      35.441      34.181      32.792      31.329    
  29.851      28.409      27.045      25.788      24.652      23.638      22.734      21.924      21.191      20.525    
  19.920      19.380      18.913      18.532      18.249      18.075      22.073      22.121      22.261      22.480    
  22.763      23.089      23.437      23.795      24.154      24.519      24.900      25.316      25.788      26.332    
  26.955      27.654      28.409      29.191      29.962      30.682      31.312      31.825      32.204      32.449    
  32.575      32.614      32.602      32.577      32.565      32.577      32.602      32.614      32.575      32.449    
  32.204      31.825      31.312      30.682      29.962      29.191      28.409      27.654      26.955      26.332    
  25.788      25.316      24.900      24.519      24.154      23.795      23.437      23.089      22.763      22.480    
  22.261      22.121      26.923      26.955      27.045      27.174      27.317      27.445      27.534      27.566    
  27.534      27.445      27.317      27.174      27.045      26.955      26.923      26.955      27.045      27.174    
  27.317      27.445      27.534      27.566      27.534      27.445      27.317      27.174      27.045      26.955    
  26.923      26.955      27.045      27.174      27.317      27.445      27.534      27.566      27.534      27.445    
  27.317      27.174      27.045      26.955      26.923      26.955      27.045      27.174      27.317      27.445    
  27.534      27.566      27.534      27.445      27.317      27.174      27.045      26.955      32.565      32.577    
  32.602      32.614      32.575      32.449      32.204      31.825      31.312      30.682      29.962      29.191    
  28.409      27.654      26.955      26.332      25.788      25.316      24.900      24.519      24.154      23.795    
  23.437      23.089      22.763      22.480      22.261      22.121      22.073      22.121      22.261      22.480    