diamond Si                              
   5.43100000000000     
     1.006354    0.000000   -0.000000
     0.000000    1.006354   -0.000000
    -0.000000   -0.000000    1.006354
   Si
     8
Direct
  0.000000 -0.000000 -0.000000
 -0.000000  0.500000  0.500000
  0.500000 -0.000000  0.500000
  0.500000  0.500000 -0.000000
  0.250000  0.250000  0.250000
  0.750000  0.750000  0.250000
  0.750000  0.250000  0.750000
  0.250000  0.750000  0.750000
 
   56   56   56
 -.31068619285E+02 -.26374362339E+02 -.13363154889E+02 0.50766570672E+01 0.25091032396E+02
 0.42916889463E+02 0.55786222833E+02 0.62428379934E+02 0.63098816726E+02 0.59218716258E+02
 0.52795396141E+02 0.45697459101E+02 0.38761125755E+02 0.32351888131E+02 0.26678523463E+02
 0.21823334507E+02 0.17777847762E+02 0.14476474910E+02 0.11824161643E+02 0.97168909464E+01
 0.80554037014E+01 0.67530334433E+01 0.57388079120E+01 0.49572447164E+01 0.43663770686E+01
 0.39352913114E+01 0.36419509273E+01 0.34715989449E+01 0.34157402285E+01 0.34715989449E+01
 0.36419509273E+01 0.39352913114E+01 0.43663770686E+01 0.49572447164E+01 0.57388079120E+01
 0.67530334433E+01 0.80554037014E+01 0.97168909464E+01 0.11824161643E+02 0.14476474910E+02
 0.17777847762E+02 0.21823334507E+02 0.26678523463E+02 0.32351888131E+02 0.38761125755E+02
 0.45697459101E+02 0.52795396141E+02 0.59218716258E+02 0.63098816726E+02 0.62428379934E+02
 0.55786222833E+02 0.42916889463E+02 0.25091032396E+02 0.50766570672E+01 -.13363154889E+02
 -.26374362339E+02 -.26374362339E+02 -.21845439075E+02 -.93009344521E+01 0.84509123300E+01
 0.27666459358E+02 0.44697217411E+02 0.56870434579E+02 0.62976295691E+02 0.63292056939E+02
 0.59226083009E+02 0.52748481791E+02 0.45661105959E+02 0.38746356286E+02 0.32361157610E+02
 0.26709279188E+02 0.21870649415E+02 0.17836302316E+02 0.14541281629E+02 0.11891660298E+02
 0.97846132513E+01 0.81219037940E+01 0.68176305083E+01 0.58013297013E+01 0.50178176666E+01
 0.44252800778E+01 0.39928698985E+01 0.36985757329E+01 0.35276493990E+01 0.34715989449E+01
 0.35276493990E+01 0.36985757329E+01 0.39928698985E+01 0.44252800778E+01 0.50178176666E+01
 0.58013297013E+01 0.68176305083E+01 0.81219037940E+01 0.97846132513E+01 0.11891660298E+02
 0.14541281629E+02 0.17836302316E+02 0.21870649415E+02 0.26709279188E+02 0.32361157610E+02
 0.38746356286E+02 0.45661105959E+02 0.52748481791E+02 0.59226083009E+02 0.63292056939E+02
 0.62976295691E+02 0.56870434579E+02 0.44697217411E+02 0.27666459358E+02 0.84509123300E+01
 -.93009344521E+01 -.21845439075E+02 -.13363154889E+02 -.93009344521E+01 0.19269929449E+01
 0.17740652847E+02 0.34710607918E+02 0.49513815228E+02 0.59747019564E+02 0.64371076893E+02
 0.63722200500E+02 0.59168959630E+02 0.52572456631E+02 0.45529894165E+02 0.38687653616E+02
 0.32379507458E+02 0.26795328835E+02 0.22008650337E+02 0.18009445041E+02 0.14734856857E+02
 0.12094422219E+02 0.99889193954E+01 0.83231934504E+01 0.70136588838E+01 0.59914105790E+01
 0.52022035761E+01 0.46047260046E+01 0.41683690506E+01 0.38712221546E+01 0.36985757329E+01
 0.36419509273E+01 0.36985757329E+01 0.38712221546E+01 0.41683690506E+01 0.46047260046E+01
 0.52022035761E+01 0.59914105790E+01 0.70136588838E+01 0.83231934504E+01 0.99889193954E+01
 0.12094422219E+02 0.14734856857E+02 0.18009445041E+02 0.22008650337E+02 0.26795328835E+02
 0.32379507458E+02 0.38687653616E+02 0.45529894165E+02 0.52572456631E+02 0.59168959630E+02
 0.63722200500E+02 0.64371076893E+02 0.59747019564E+02 0.49513815228E+02 0.34710607918E+02
 0.17740652847E+02 0.19269929449E+01 -.93009344521E+01 0.50766570672E+01 0.84509123300E+01
 0.17740652847E+02 0.30709043693E+02 0.44397826340E+02 0.55969886842E+02 0.63421169754E+02
 0.65960783802E+02 0.64003682009E+02 0.58848350257E+02 0.52177701200E+02 0.45245368591E+02
 0.38546483520E+02 0.32381129540E+02 0.26919339596E+02 0.22226104561E+02 0.18290814600E+02
 0.15054665514E+02 0.12433160093E+02 0.10333126513E+02 0.86645653242E+01 0.73478014802E+01
 0.63166237307E+01 0.55184832715E+01 0.49130475845E+01 0.44702284271E+01 0.41683690506E+01
 0.39928698985E+01 0.39352913114E+01 0.39928698985E+01 0.41683690506E+01 0.44702284271E+01
 0.49130475845E+01 0.55184832715E+01 0.63166237307E+01 0.73478014802E+01 0.86645653242E+01
 0.10333126513E+02 0.12433160093E+02 0.15054665514E+02 0.18290814600E+02 0.22226104561E+02
 0.26919339596E+02 0.32381129540E+02 0.38546483520E+02 0.45245368591E+02 0.52177701200E+02
 0.58848350257E+02 0.64003682009E+02 0.65960783802E+02 0.63421169754E+02 0.55969886842E+02
 0.44397826340E+02 0.30709043693E+02 0.17740652847E+02 0.84509123300E+01 0.25091032396E+02
 0.27666459358E+02 0.34710607918E+02 0.44397826340E+02 0.54332362520E+02 0.62253285035E+02
 0.66623795830E+02 0.66934678693E+02 0.63676224720E+02 0.58043088122E+02 0.51452808640E+02
 0.44733337239E+02 0.38272291642E+02 0.32330705348E+02 0.27056504994E+02 0.22506258631E+02
 0.18670423249E+02 0.15496642120E+02 0.12908944104E+02 0.10822578444E+02 0.91547151724E+01
 0.78312012386E+01 0.67897555770E+01 0.59804454361E+01 0.53645807975E+01 0.49130475845E+01
 0.46047260046E+01 0.44252800778E+01 0.43663770686E+01 0.44252800778E+01 0.46047260046E+01
 0.49130475845E+01 0.53645807975E+01 0.59804454361E+01 0.67897555770E+01 0.78312012386E+01
 0.91547151724E+01 0.10822578444E+02 0.12908944104E+02 0.15496642120E+02 0.18670423249E+02
 0.22506258631E+02 0.27056504994E+02 0.32330705348E+02 0.38272291642E+02 0.44733337239E+02
 0.51452808640E+02 0.58043088122E+02 0.63676224720E+02 0.66934678693E+02 0.66623795830E+02
 0.62253285035E+02 0.54332362520E+02 0.44397826340E+02 0.34710607918E+02 0.27666459358E+02
 0.42916889463E+02 0.44697217411E+02 0.49513815228E+02 0.55969886842E+02 0.62253285035E+02
 0.66694983627E+02 0.68228832631E+02 0.66615302957E+02 0.62393975271E+02 0.56619802254E+02
 0.50303883646E+02 0.43928551288E+02 0.37817530806E+02 0.32192300480E+02 0.27179644651E+02
 0.22829642352E+02 0.19136203649E+02 0.16055867921E+02 0.13523485818E+02 0.11464784280E+02
 0.98058981547E+01 0.84797360354E+01 0.74292502034E+01 0.66082101283E+01 0.59804454361E+01
 0.55184832715E+01 0.52022035761E+01 0.50178176666E+01 0.49572447164E+01 0.50178176666E+01
 0.52022035761E+01 0.55184832715E+01 0.59804454361E+01 0.66082101283E+01 0.74292502034E+01
 0.84797360354E+01 0.98058981547E+01 0.11464784280E+02 0.13523485818E+02 0.16055867921E+02
 0.19136203649E+02 0.22829642352E+02 0.27179644651E+02 0.32192300480E+02 0.37817530806E+02
 0.43928551288E+02 0.50303883646E+02 0.56619802254E+02 0.62393975271E+02 0.66615302957E+02
 0.68228832631E+02 0.66694983627E+02 0.62253285035E+02 0.55969886842E+02 0.49513815228E+02
 0.44697217411E+02 0.55786222833E+02 0.56870434579E+02 0.59747019564E+02 0.63421169754E+02
 0.66623795830E+02 0.68228832631E+02 0.67589116222E+02 0.64685552757E+02 0.60064431074E+02
 0.54554203860E+02 0.48684627019E+02 0.42794402251E+02 0.37150484330E+02 0.31937685138E+02
 0.27264608050E+02 0.23177576932E+02 0.19676272552E+02 0.16728023316E+02 0.14280092059E+02
 0.12270114254E+02 0.10634552488E+02 0.93147049117E+01 0.82600434158E+01 0.74292502034E+01
 0.67897555770E+01 0.63166237307E+01 0.59914105790E+01 0.58013297013E+01 0.57388079120E+01
 0.58013297013E+01 0.59914105790E+01 0.63166237307E+01 0.67897555770E+01 0.74292502034E+01
 0.82600434158E+01 0.93147049117E+01 0.10634552488E+02 0.12270114254E+02 0.14280092059E+02
 0.16728023316E+02 0.19676272552E+02 0.23177576932E+02 0.27264608050E+02 0.31937685138E+02
 0.37150484330E+02 0.42794402251E+02 0.48684627019E+02 0.54554203860E+02 0.60064431074E+02
 0.64685552757E+02 0.67589116222E+02 0.68228832631E+02 0.66623795830E+02 0.63421169754E+02
 0.59747019564E+02 0.56870434579E+02 0.62428379934E+02 0.62976295691E+02 0.64371076893E+02
 0.65960783802E+02 0.66934678693E+02 0.66615302957E+02 0.64685552757E+02 0.61274407387E+02
 0.56863424101E+02 0.51875141953E+02 0.46608086905E+02 0.41332005700E+02 0.36262426367E+02
 0.31552067968E+02 0.27294880350E+02 0.23535822820E+02 0.20281740928E+02 0.17511489696E+02
 0.15185220285E+02 0.13252995372E+02 0.11662323978E+02 0.10363847915E+02 0.93147049117E+01
 0.84797360354E+01 0.78312012386E+01 0.73478014802E+01 0.70136588838E+01 0.68176305083E+01
 0.67530334433E+01 0.68176305083E+01 0.70136588838E+01 0.73478014802E+01 0.78312012386E+01
 0.84797360354E+01 0.93147049117E+01 0.10363847915E+02 0.11662323978E+02 0.13252995372E+02
 0.15185220285E+02 0.17511489696E+02 0.20281740928E+02 0.23535822820E+02 0.27294880350E+02
 0.31552067968E+02 0.36262426367E+02 0.41332005700E+02 0.46608086905E+02 0.51875141953E+02
 0.56863424101E+02 0.61274407387E+02 0.64685552757E+02 0.66615302957E+02 0.66934678693E+02
 0.65960783802E+02 0.64371076893E+02 0.62976295691E+02 0.63098816726E+02 0.63292056939E+02
 0.63722200500E+02 0.64003682009E+02 0.63676224720E+02 0.62393975271E+02 0.60064431074E+02
 0.56863424101E+02 0.53000724031E+02 0.48684215581E+02 0.44140367454E+02 0.39578187139E+02
 0.35168382733E+02 0.31036445887E+02 0.27264608050E+02 0.23897630008E+02 0.20949393668E+02
 0.18409492053E+02 0.16250095371E+02 0.14433129530E+02 0.12917068920E+02 0.11662323978E+02
 0.10634552488E+02 0.98058981547E+01 0.91547151724E+01 0.86645653242E+01 0.83231934504E+01
 0.81219037940E+01 0.80554037014E+01 0.81219037940E+01 0.83231934504E+01 0.86645653242E+01
 0.91547151724E+01 0.98058981547E+01 0.10634552488E+02 0.11662323978E+02 0.12917068920E+02
 0.14433129530E+02 0.16250095371E+02 0.18409492053E+02 0.20949393668E+02 0.23897630008E+02
 0.27264608050E+02 0.31036445887E+02 0.35168382733E+02 0.39578187139E+02 0.44140367454E+02
 0.48684215581E+02 0.53000724031E+02 0.56863424101E+02 0.60064431074E+02 0.62393975271E+02
 0.63676224720E+02 0.64003682009E+02 0.63722200500E+02 0.63292056939E+02 0.59218716258E+02
 0.59226083009E+02 0.59168959630E+02 0.58848350257E+02 0.58043088122E+02 0.56619802254E+02
 0.54554203860E+02 0.51875141953E+02 0.48684215581E+02 0.45131400645E+02 0.41382956460E+02
 0.37595932658E+02 0.33903063630E+02 0.30406899550E+02 0.27179644651E+02 0.24265413390E+02
 0.21683316417E+02 0.19431353875E+02 0.17491522067E+02 0.15835952116E+02 0.14433129530E+02
 0.13252995372E+02 0.12270114254E+02 0.11464784280E+02 0.10822578444E+02 0.10333126513E+02
 0.99889193954E+01 0.97846132513E+01 0.97168909464E+01 0.97846132513E+01 0.99889193954E+01
 0.10333126513E+02 0.10822578444E+02 0.11464784280E+02 0.12270114254E+02 0.13252995372E+02
 0.14433129530E+02 0.15835952116E+02 0.17491522067E+02 0.19431353875E+02 0.21683316417E+02
 0.24265413390E+02 0.27179644651E+02 0.30406899550E+02 0.33903063630E+02 0.37595932658E+02
 0.41382956460E+02 0.45131400645E+02 0.48684215581E+02 0.51875141953E+02 0.54554203860E+02
 0.56619802254E+02 0.58043088122E+02 0.58848350257E+02 0.59168959630E+02 0.59226083009E+02
 0.52795396142E+02 0.52748481791E+02 0.52572456631E+02 0.52177701200E+02 0.51452808640E+02
 0.50303883646E+02 0.48684627019E+02 0.46608086905E+02 0.44140367454E+02 0.41382956460E+02
 0.38452189183E+02 0.35462272500E+02 0.32514465381E+02 0.29691703473E+02 0.27056504994E+02
 0.24650428145E+02 0.22494632745E+02 0.20591983875E+02 0.18931041817E+02 0.17491522067E+02
 0.16250095371E+02 0.15185220285E+02 0.14280092059E+02 0.13523485818E+02 0.12908944104E+02
 0.12433160093E+02 0.12094422219E+02 0.11891660298E+02 0.11824161643E+02 0.11891660298E+02
 0.12094422219E+02 0.12433160093E+02 0.12908944104E+02 0.13523485818E+02 0.14280092059E+02
 0.15185220285E+02 0.16250095371E+02 0.17491522067E+02 0.18931041817E+02 0.20591983875E+02
 0.22494632745E+02 0.24650428145E+02 0.27056504994E+02 0.29691703473E+02 0.32514465381E+02
 0.35462272500E+02 0.38452189183E+02 0.41382956460E+02 0.44140367454E+02 0.46608086905E+02
 0.48684627019E+02 0.50303883646E+02 0.51452808640E+02 0.52177701200E+02 0.52572456631E+02
 0.52748481791E+02 0.45697459101E+02 0.45661105959E+02 0.45529894165E+02 0.45245368591E+02
 0.44733337239E+02 0.43928551288E+02 0.42794402251E+02 0.41332005700E+02 0.39578187139E+02
 0.37595932658E+02 0.35462272500E+02 0.33257476525E+02 0.31057169902E+02 0.28927063734E+02
 0.26919339596E+02 0.25070211138E+02 0.23398977100E+02 0.21909170894E+02 0.20591983875E+02
 0.19431353875E+02 0.18409492053E+02 0.17511489696E+02 0.16728023316E+02 0.16055867921E+02
 0.15496642120E+02 0.15054665514E+02 0.14734856857E+02 0.14541281629E+02 0.14476474910E+02
 0.14541281629E+02 0.14734856857E+02 0.15054665514E+02 0.15496642120E+02 0.16055867921E+02
 0.16728023316E+02 0.17511489696E+02 0.18409492053E+02 0.19431353875E+02 0.20591983875E+02
 0.21909170894E+02 0.23398977100E+02 0.25070211138E+02 0.26919339596E+02 0.28927063734E+02
 0.31057169902E+02 0.33257476525E+02 0.35462272500E+02 0.37595932658E+02 0.39578187139E+02
 0.41332005700E+02 0.42794402251E+02 0.43928551288E+02 0.44733337239E+02 0.45245368591E+02
 0.45529894165E+02 0.45661105959E+02 0.38761125755E+02 0.38746356286E+02 0.38687653616E+02
 0.38546483520E+02 0.38272291642E+02 0.37817530806E+02 0.37150484330E+02 0.36262426367E+02
 0.35168382733E+02 0.33903063630E+02 0.32514465381E+02 0.31057169902E+02 0.29586271052E+02
 0.28152038539E+02 0.26795328835E+02 0.25544140940E+02 0.24412033397E+02 0.23398977100E+02
 0.22494632745E+02 0.21683316417E+02 0.20949393668E+02 0.20281740928E+02 0.19676272552E+02
 0.19136203649E+02 0.18670423249E+02 0.18290814600E+02 0.18009445041E+02 0.17836302316E+02
 0.17777847762E+02 0.17836302316E+02 0.18009445041E+02 0.18290814600E+02 0.18670423249E+02
 0.19136203649E+02 0.19676272552E+02 0.20281740928E+02 0.20949393668E+02 0.21683316417E+02
 0.22494632745E+02 0.23398977100E+02 0.24412033397E+02 0.25544140940E+02 0.26795328835E+02
 0.28152038539E+02 0.29586271052E+02 0.31057169902E+02 0.32514465381E+02 0.33903063630E+02
 0.35168382733E+02 0.36262426367E+02 0.37150484330E+02 0.37817530806E+02 0.38272291642E+02
 0.38546483520E+02 0.38687653616E+02 0.38746356286E+02 0.32351888131E+02 0.32361157610E+02
 0.32379507458E+02 0.32381129540E+02 0.32330705348E+02 0.32192300480E+02 0.31937685138E+02
 0.31552067968E+02 0.31036445887E+02 0.30406899550E+02 0.29691703473E+02 0.28927063734E+02
 0.28152038539E+02 0.27403135316E+02 0.26709279188E+02 0.26088063470E+02 0.25544140940E+02
 0.25070211138E+02 0.24650428145E+02 0.24265413390E+02 0.23897630008E+02 0.23535822820E+02
 0.23177576932E+02 0.22829642352E+02 0.22506258631E+02 0.22226104561E+02 0.22008650337E+02
 0.21870649415E+02 0.21823334507E+02 0.21870649415E+02 0.22008650337E+02 0.22226104561E+02
 0.22506258631E+02 0.22829642352E+02 0.23177576932E+02 0.23535822820E+02 0.23897630008E+02
 0.24265413390E+02 0.24650428145E+02 0.25070211138E+02 0.25544140940E+02 0.26088063470E+02
 0.26709279188E+02 0.27403135316E+02 0.28152038539E+02 0.28927063734E+02 0.29691703473E+02
 0.30406899550E+02 0.31036445887E+02 0.31552067968E+02 0.31937685138E+02 0.32192300480E+02
 0.32330705348E+02 0.32381129540E+02 0.32379507458E+02 0.32361157610E+02 0.26678523463E+02
 0.26709279188E+02 0.26795328835E+02 0.26919339596E+02 0.27056504994E+02 0.27179644651E+02
 0.27264608050E+02 0.27294880350E+02 0.27264608050E+02 0.27179644651E+02 0.27056504994E+02
 0.26919339596E+02 0.26795328835E+02 0.26709279188E+02 0.26678523463E+02 0.26709279188E+02
 0.26795328835E+02 0.26919339596E+02 0.27056504994E+02 0.27179644651E+02 0.27264608050E+02
 0.27294880350E+02 0.27264608050E+02 0.27179644651E+02 0.27056504994E+02 0.26919339596E+02
 0.26795328835E+02 0.26709279188E+02 0.26678523463E+02 0.26709279188E+02 0.26795328835E+02
 0.26919339596E+02 0.27056504994E+02 0.27179644651E+02 0.27264608050E+02 0.27294880350E+02
 0.27264608050E+02 0.27179644651E+02 0.27056504994E+02 0.26919339596E+02 0.26795328835E+02
 0.26709279188E+02 0.26678523463E+02 0.26709279188E+02 0.26795328835E+02 0.26919339596E+02
 0.27056504994E+02 0.27179644651E+02 0.27264608050E+02 0.27294880350E+02 0.27264608050E+02
 0.27179644651E+02 0.27056504994E+02 0.26919339596E+02 0.26795328835E+02 0.26709279188E+02
 0.21823334507E+02 0.21870649415E+02 0.22008650337E+02 0.22226104561E+02 0.22506258631E+02
 0.22829642352E+02 0.23177576932E+02 0.23535822820E+02 0.23897630008E+02 0.24265413390E+02
 0.24650428145E+02 0.25070211138E+02 0.25544140940E+02 0.26088063470E+02 0.26709279188E+02
 0.27403135316E+02 0.28152038539E+02 0.28927063734E+02 0.29691703473E+02 0.30406899550E+02
 0.31036445887E+02 0.31552067968E+02 0.31937685138E+02 0.32192300480E+02 0.32330705348E+02
 0.32381129540E+02 0.32379507458E+02 0.32361157610E+02 0.32351888131E+02 0.32361157610E+02
 0.32379507458E+02 0.32381129540E+02 0.32330705348E+02 0.32192300480E+02 0.31937685138E+02
 0.31552067968E+02 0.31036445887E+02 0.30406899550E+02 0.29691703473E+02 0.28927063734E+02
 0.28152038539E+02 0.27403135316E+02 0.26709279188E+02 0.26088063470E+02 0.25544140940E+02
 0.25070211138E+02 0.24650428145E+02 0.24265413390E+02 0.23897630008E+02 0.23535822820E+02
 0.23177576932E+02 0.22829642352E+02 0.22506258631E+02 0.22226104561E+02 0.22008650337E+02
 0.21870649415E+02 0.17777847762E+02 0.17836302316E+02 0.18009445041E+02 0.18290814600E+02
 0.18670423249E+02 0.19136203649E+02 0.19676272552E+02 0.20281740928E+02 0.20949393668E+02
 0.21683316417E+02 0.22494632745E+02 0.23398977100E+02 0.24412033397E+02 0.25544140940E+02
 0.26795328835E+02 0.28152038539E+02 0.29586271052E+02 0.31057169902E+02 0.32514465381E+02
 0.33903063630E+02 0.35168382733E+02 0.36262426367E+02 0.37150484330E+02 0.37817530806E+02
 0.38272291642E+02 0.38546483520E+02 0.38687653616E+02 0.38746356286E+02 0.38761125755E+02
 0.38746356286E+02 0.38687653616E+02 0.38546483520E+02 0.38272291642E+02 0.37817530806E+02
 0.37150484330E+02 0.36262426367E+02 0.35168382733E+02 0.33903063630E+02 0.32514465381E+02
 0.31057169902E+02 0.29586271052E+02 0.28152038539E+02 0.26795328835E+02 0.25544140940E+02
 0.24412033397E+02 0.23398977100E+02 0.22494632745E+02 0.21683316417E+02 0.20949393668E+02
 0.20281740928E+02 0.19676272552E+02 0.19136203649E+02 0.18670423249E+02 0.18290814600E+02
 0.18009445041E+02 0.17836302316E+02 0.14476474910E+02 0.14541281629E+02 0.14734856857E+02
 0.15054665514E+02 0.15496642120E+02 0.16055867921E+02 0.16728023316E+02 0.17511489696E+02
 0.18409492053E+02 0.19431353875E+02 0.20591983875E+02 0.21909170894E+02 0.23398977100E+02
 0.25070211138E+02 0.26919339596E+02 0.28927063734E+02 0.31057169902E+02 0.33257476525E+02
 0.35462272500E+02 0.37595932658E+02 0.39578187139E+02 0.41332005700E+02 0.42794402251E+02
 0.43928551288E+02 0.44733337239E+02 0.45245368591E+02 0.45529894165E+02 0.45661105959E+02
 0.45697459101E+02 0.45661105959E+02 0.45529894165E+02 0.45245368591E+02 0.44733337239E+02
 0.43928551288E+02 0.42794402251E+02 0.41332005700E+02 0.39578187139E+02 0.37595932658E+02
 0.35462272500E+02 0.33257476525E+02 0.31057169902E+02 0.28927063734E+02 0.26919339596E+02
 0.25070211138E+02 0.23398977100E+02 0.21909170894E+02 0.20591983875E+02 0.19431353875E+02
 0.18409492053E+02 0.17511489696E+02 0.16728023316E+02 0.16055867921E+02 0.15496642120E+02
 0.15054665514E+02 0.14734856857E+02 0.14541281629E+02 0.11824161643E+02 0.11891660298E+02
 0.12094422219E+02 0.12433160093E+02 0.12908944104E+02 0.13523485818E+02 0.14280092059E+02
 0.15185220285E+02 0.16250095371E+02 0.17491522067E+02 0.18931041817E+02 0.20591983875E+02
 0.22494632745E+02 0.24650428145E+02 0.27056504994E+02 0.29691703473E+02 0.32514465381E+02
 0.35462272500E+02 0.38452189183E+02 0.41382956460E+02 0.44140367454E+02 0.46608086905E+02
 0.48684627019E+02 0.50303883646E+02 0.51452808640E+02 0.52177701200E+02 0.52572456631E+02
 0.52748481791E+02 0.52795396141E+02 0.52748481791E+02 0.52572456631E+02 0.52177701200E+02
 0.51452808640E+02 0.50303883646E+02 0.48684627019E+02 0.46608086905E+02 0.44140367454E+02
 0.41382956460E+02 0.38452189183E+02 0.35462272500E+02 0.32514465381E+02 0.29691703473E+02
 0.27056504994E+02 0.24650428145E+02 0.22494632745E+02 0.20591983875E+02 0.18931041817E+02
 0.17491522067E+02 0.16250095371E+02 0.15185220285E+02 0.14280092059E+02 0.13523485818E+02
 0.12908944104E+02 0.12433160093E+02 0.12094422219E+02 0.11891660298E+02 0.97168909464E+01
 0.97846132513E+01 0.99889193954E+01 0.10333126513E+02 0.10822578444E+02 0.11464784280E+02
 0.12270114254E+02 0.13252995372E+02 0.14433129530E+02 0.15835952116E+02 0.17491522067E+02
 0.19431353875E+02 0.21683316417E+02 0.24265413390E+02 0.27179644651E+02 0.30406899550E+02
 0.33903063630E+02 0.37595932658E+02 0.41382956460E+02 0.45131400645E+02 0.48684215581E+02
 0.51875141953E+02 0.54554203860E+02 0.56619802254E+02 0.58043088122E+02 0.58848350257E+02
 0.59168959630E+02 0.59226083009E+02 0.59218716258E+02 0.59226083009E+02 0.59168959630E+02
 0.58848350257E+02 0.58043088122E+02 0.56619802254E+02 0.54554203860E+02 0.51875141953E+02
 0.48684215581E+02 0.45131400645E+02 0.41382956460E+02 0.37595932658E+02 0.33903063630E+02
 0.30406899550E+02 0.27179644651E+02 0.24265413390E+02 0.21683316417E+02 0.19431353875E+02
 0.17491522067E+02 0.15835952116E+02 0.14433129530E+02 0.13252995372E+02 0.12270114254E+02
 0.11464784280E+02 0.10822578444E+02 0.10333126513E+02 0.99889193954E+01 0.97846132513E+01
 0.80554037014E+01 0.81219037940E+01 0.83231934504E+01 0.86645653242E+01 0.91547151724E+01
 0.98058981547E+01 0.10634552488E+02 0.11662323978E+02 0.12917068920E+02 0.14433129530E+02
 0.16250095371E+02 0.18409492053E+02 0.20949393668E+02 0.23897630008E+02 0.27264608050E+02
 0.31036445887E+02 0.35168382733E+02 0.39578187139E+02 0.44140367454E+02 0.48684215581E+02
 0.53000724031E+02 0.56863424101E+02 0.60064431074E+02 0.62393975271E+02 0.63676224720E+02
 0.64003682009E+02 0.63722200500E+02 0.63292056939E+02 0.63098816726E+02 0.63292056939E+02
 0.63722200500E+02 0.64003682009E+02 0.63676224720E+02 0.62393975271E+02 0.60064431074E+02
 0.56863424101E+02 0.53000724031E+02 0.48684215581E+02 0.44140367454E+02 0.39578187139E+02
 0.35168382733E+02 0.31036445887E+02 0.27264608050E+02 0.23897630008E+02 0.20949393668E+02
 0.18409492053E+02 0.16250095371E+02 0.14433129530E+02 0.12917068920E+02 0.11662323978E+02
 0.10634552488E+02 0.98058981547E+01 0.91547151724E+01 0.86645653242E+01 0.83231934504E+01
 0.81219037940E+01 0.67530334433E+01 0.68176305083E+01 0.70136588838E+01 0.73478014802E+01
 0.78312012386E+01 0.84797360354E+01 0.93147049117E+01 0.10363847915E+02 0.11662323978E+02
 0.13252995372E+02 0.15185220285E+02 0.17511489696E+02 0.20281740928E+02 0.23535822820E+02
 0.27294880350E+02 0.31552067968E+02 0.36262426367E+02 0.41332005700E+02 0.46608086905E+02
 0.51875141953E+02 0.56863424101E+02 0.61274407387E+02 0.64685552757E+02 0.66615302957E+02
 0.66934678693E+02 0.65960783802E+02 0.64371076893E+02 0.62976295691E+02 0.62428379934E+02
 0.62976295691E+02 0.64371076893E+02 0.65960783802E+02 0.66934678693E+02 0.66615302957E+02
 0.64685552757E+02 0.61274407387E+02 0.56863424101E+02 0.51875141953E+02 0.46608086905E+02
 0.41332005700E+02 0.36262426367E+02 0.31552067968E+02 0.27294880350E+02 0.23535822820E+02
 0.20281740928E+02 0.17511489696E+02 0.15185220285E+02 0.13252995372E+02 0.11662323978E+02
 0.10363847915E+02 0.93147049117E+01 0.84797360354E+01 0.78312012386E+01 0.73478014802E+01
 0.70136588838E+01 0.68176305083E+01 0.57388079120E+01 0.58013297013E+01 0.59914105790E+01
 0.63166237307E+01 0.67897555770E+01 0.74292502034E+01 0.82600434158E+01 0.93147049117E+01
 0.10634552488E+02 0.12270114254E+02 0.14280092059E+02 0.16728023316E+02 0.19676272552E+02
 0.23177576932E+02 0.27264608050E+02 0.31937685138E+02 0.37150484330E+02 0.42794402251E+02
 0.48684627019E+02 0.54554203860E+02 0.60064431074E+02 0.64685552757E+02 0.67589116222E+02
 0.68228832631E+02 0.66623795830E+02 0.63421169754E+02 0.59747019564E+02 0.56870434579E+02
 0.55786222833E+02 0.56870434579E+02 0.59747019564E+02 0.63421169754E+02 0.66623795830E+02
 0.68228832631E+02 0.67589116222E+02 0.64685552757E+02 0.60064431074E+02 0.54554203860E+02
 0.48684627019E+02 0.42794402251E+02 0.37150484330E+02 0.31937685138E+02 0.27264608050E+02
 0.23177576932E+02 0.19676272552E+02 0.16728023316E+02 0.14280092059E+02 0.12270114254E+02
 0.10634552488E+02 0.93147049117E+01 0.82600434158E+01 0.74292502034E+01 0.67897555770E+01
 0.63166237307E+01 0.59914105790E+01 0.58013297013E+01 0.49572447164E+01 0.50178176666E+01
 0.52022035761E+01 0.55184832715E+01 0.59804454361E+01 0.66082101283E+01 0.74292502034E+01
 0.84797360354E+01 0.98058981547E+01 0.11464784280E+02 0.13523485818E+02 0.16055867921E+02
 0.19136203649E+02 0.22829642352E+02 0.27179644651E+02 0.32192300480E+02 0.37817530806E+02
 0.43928551288E+02 0.50303883646E+02 0.56619802254E+02 0.62393975271E+02 0.66615302957E+02
 0.68228832631E+02 0.66694983627E+02 0.62253285035E+02 0.55969886842E+02 0.49513815228E+02
 0.44697217411E+02 0.42916889463E+02 0.44697217411E+02 0.49513815228E+02 0.55969886842E+02
 0.62253285035E+02 0.66694983627E+02 0.68228832631E+02 0.66615302957E+02 0.62393975271E+02
 0.56619802254E+02 0.50303883646E+02 0.43928551288E+02 0.37817530806E+02 0.32192300480E+02
 0.27179644651E+02 0.22829642352E+02 0.19136203649E+02 0.16055867921E+02 0.13523485818E+02
 0.11464784280E+02 0.98058981547E+01 0.84797360354E+01 0.74292502034E+01 0.66082101283E+01
 0.59804454361E+01 0.55184832715E+01 0.52022035761E+01 0.50178176666E+01 0.43663770686E+01
 0.44252800778E+01 0.46047260046E+01 0.49130475845E+01 0.53645807975E+01 0.59804454361E+01
 0.67897555770E+01 0.78312012386E+01 0.91547151724E+01 0.10822578444E+02 0.12908944104E+02
 0.15496642120E+02 0.18670423249E+02 0.22506258631E+02 0.27056504994E+02 0.32330705348E+02
 0.38272291642E+02 0.44733337239E+02 0.51452808640E+02 0.58043088122E+02 0.63676224720E+02
 0.66934678693E+02 0.66623795830E+02 0.62253285035E+02 0.54332362520E+02 0.44397826340E+02
 0.34710607918E+02 0.27666459358E+02 0.25091032396E+02 0.27666459358E+02 0.34710607918E+02
 0.44397826340E+02 0.54332362520E+02 0.62253285035E+02 0.66623795830E+02 0.66934678693E+02
 0.63676224720E+02 0.58043088122E+02 0.51452808640E+02 0.44733337239E+02 0.38272291642E+02
 0.32330705348E+02 0.27056504994E+02 0.22506258631E+02 0.18670423249E+02 0.15496642120E+02
 0.12908944104E+02 0.10822578444E+02 0.91547151724E+01 0.78312012386E+01 0.67897555770E+01
 0.59804454361E+01 0.53645807975E+01 0.49130475845E+01 0.46047260046E+01 0.44252800778E+01
 0.39352913114E+01 0.39928698985E+01 0.41683690506E+01 0.44702284271E+01 0.49130475845E+01
 0.55184832715E+01 0.63166237307E+01 0.73478014802E+01 0.86645653242E+01 0.10333126513E+02
 0.12433160093E+02 0.15054665514E+02 0.18290814600E+02 0.22226104561E+02 0.26919339596E+02
 0.32381129540E+02 0.38546483520E+02 0.45245368591E+02 0.52177701200E+02 0.58848350257E+02
 0.64003682009E+02 0.65960783802E+02 0.63421169754E+02 0.55969886842E+02 0.44397826340E+02
 0.30709043693E+02 0.17740652847E+02 0.84509123300E+01 0.50766570672E+01 0.84509123300E+01
 0.17740652847E+02 0.30709043693E+02 0.44397826340E+02 0.55969886842E+02 0.63421169754E+02
 0.65960783802E+02 0.64003682009E+02 0.58848350257E+02 0.52177701200E+02 0.45245368591E+02
 0.38546483520E+02 0.32381129540E+02 0.26919339596E+02 0.22226104561E+02 0.18290814600E+02
 0.15054665514E+02 0.12433160093E+02 0.10333126513E+02 0.86645653242E+01 0.73478014802E+01
 0.63166237307E+01 0.55184832715E+01 0.49130475845E+01 0.44702284271E+01 0.41683690506E+01
 0.39928698985E+01 0.36419509273E+01 0.36985757329E+01 0.38712221546E+01 0.41683690506E+01
 0.46047260046E+01 0.52022035761E+01 0.59914105790E+01 0.70136588838E+01 0.83231934504E+01
 0.99889193954E+01 0.12094422219E+02 0.14734856857E+02 0.18009445041E+02 0.22008650337E+02
 0.26795328835E+02 0.32379507458E+02 0.38687653616E+02 0.45529894165E+02 0.52572456631E+02
 0.59168959630E+02 0.63722200500E+02 0.64371076893E+02 0.59747019564E+02 0.49513815228E+02
 0.34710607918E+02 0.17740652847E+02 0.19269929449E+01 -.93009344521E+01 -.13363154889E+02
 -.93009344521E+01 0.19269929449E+01 0.17740652847E+02 0.34710607918E+02 0.49513815228E+02
 0.59747019564E+02 0.64371076893E+02 0.63722200500E+02 0.59168959630E+02 0.52572456631E+02
 0.45529894165E+02 0.38687653616E+02 0.32379507458E+02 0.26795328835E+02 0.22008650337E+02
 0.18009445041E+02 0.14734856857E+02 0.12094422219E+02 0.99889193954E+01 0.83231934504E+01
 0.70136588838E+01 0.59914105790E+01 0.52022035761E+01 0.46047260046E+01 0.41683690506E+01
 0.38712221546E+01 0.36985757329E+01 0.34715989449E+01 0.35276493990E+01 0.36985757329E+01
 0.39928698985E+01 0.44252800778E+01 0.50178176666E+01 0.58013297013E+01 0.68176305083E+01
 0.81219037940E+01 0.97846132513E+01 0.11891660298E+02 0.14541281629E+02 0.17836302316E+02
 0.21870649415E+02 0.26709279188E+02 0.32361157610E+02 0.38746356286E+02 0.45661105959E+02
 0.52748481791E+02 0.59226083009E+02 0.63292056939E+02 0.62976295691E+02 0.56870434579E+02
 0.44697217411E+02 0.27666459358E+02 0.84509123300E+01 -.93009344521E+01 -.21845439075E+02
 -.26374362339E+02 -.21845439075E+02 -.93009344521E+01 0.84509123300E+01 0.27666459358E+02
 0.44697217411E+02 0.56870434579E+02 0.62976295691E+02 0.63292056939E+02 0.59226083009E+02
 0.52748481791E+02 0.45661105959E+02 0.38746356286E+02 0.32361157610E+02 0.26709279188E+02
 0.21870649415E+02 0.17836302316E+02 0.14541281629E+02 0.11891660298E+02 0.97846132513E+01
 0.81219037940E+01 0.68176305083E+01 0.58013297013E+01 0.50178176666E+01 0.44252800778E+01
 0.39928698985E+01 0.36985757329E+01 0.35276493990E+01 0.34157402285E+01 0.34715989449E+01
 0.36419509273E+01 0.39352913114E+01 0.43663770686E+01 0.49572447164E+01 0.57388079120E+01
 0.67530334433E+01 0.80554037014E+01 0.97168909464E+01 0.11824161643E+02 0.14476474910E+02
 0.17777847762E+02 0.21823334507E+02 0.26678523463E+02 0.32351888131E+02 0.38761125755E+02
 0.45697459101E+02 0.52795396141E+02 0.59218716258E+02 0.63098816726E+02 0.62428379934E+02
 0.55786222833E+02 0.42916889463E+02 0.25091032396E+02 0.50766570672E+01 -.13363154889E+02
 -.26374362339E+02 -.31068619285E+02 -.26374362339E+02 -.13363154889E+02 0.50766570672E+01
 0.25091032396E+02 0.42916889463E+02 0.55786222833E+02 0.62428379934E+02 0.63098816726E+02
 0.59218716258E+02 0.52795396141E+02 0.45697459101E+02 0.38761125755E+02 0.32351888131E+02
 0.26678523463E+02 0.21823334507E+02 0.17777847762E+02 0.14476474910E+02 0.11824161643E+02
 0.97168909464E+01 0.80554037014E+01 0.67530334433E+01 0.57388079120E+01 0.49572447164E+01