   8   8   0   0
  0.2002393E+02  0.5431000E-09  0.5431000E-09  0.5431000E-09  0.1000000E-14
  1.000000000000000E-004
  CAR 
 diamond Si                              
     11.77586418     -7.19332892  301      5.94907174      1.00000000
     -7.193  0.0000E+00  0.0000E+00
     -7.130  0.0000E+00  0.0000E+00
     -7.067  0.0000E+00  0.0000E+00
     -7.004  0.0000E+00  0.0000E+00
     -6.940  0.0000E+00  0.0000E+00
     -6.877  0.0000E+00  0.0000E+00
     -6.814  0.0000E+00  0.0000E+00
     -6.751  0.1649E-16  0.1043E-17
     -6.687  0.1423E-13  0.9011E-15
     -6.624  0.5628E-11  0.3567E-12
     -6.561  0.1019E-08  0.6480E-10
     -6.498  0.8513E-07  0.5448E-08
     -6.435  0.3324E-05  0.2156E-06
     -6.371  0.6247E-04  0.4166E-05
     -6.308  0.6010E-03  0.4217E-04
     -6.245  0.3307E-02  0.2513E-03
     -6.182  0.1180E-01  0.9971E-03
     -6.118  0.2929E-01  0.2849E-02
     -6.055  0.5217E-01  0.6148E-02
     -5.992  0.6783E-01  0.1044E-01
     -5.929  0.6787E-01  0.1473E-01
     -5.865  0.6703E-01  0.1897E-01
     -5.802  0.9115E-01  0.2473E-01
     -5.739  0.1339E+00  0.3320E-01
     -5.676  0.1479E+00  0.4255E-01
     -5.613  0.1119E+00  0.4963E-01
     -5.549  0.7610E-01  0.5444E-01
     -5.486  0.9593E-01  0.6051E-01
     -5.423  0.1490E+00  0.6993E-01
     -5.360  0.1820E+00  0.8143E-01
     -5.296  0.1858E+00  0.9318E-01
     -5.233  0.1714E+00  0.1040E+00
     -5.170  0.1455E+00  0.1132E+00
     -5.107  0.1528E+00  0.1229E+00
     -5.043  0.2100E+00  0.1362E+00
     -4.980  0.2264E+00  0.1505E+00
     -4.917  0.1513E+00  0.1600E+00
     -4.854  0.1006E+00  0.1664E+00
     -4.791  0.1567E+00  0.1763E+00
     -4.727  0.2473E+00  0.1920E+00
     -4.664  0.2898E+00  0.2103E+00
     -4.601  0.2672E+00  0.2272E+00
     -4.538  0.2384E+00  0.2422E+00
     -4.474  0.2882E+00  0.2605E+00
     -4.411  0.3215E+00  0.2808E+00
     -4.348  0.2271E+00  0.2952E+00
     -4.285  0.1375E+00  0.3038E+00
     -4.221  0.1522E+00  0.3135E+00
     -4.158  0.2352E+00  0.3283E+00
     -4.095  0.3364E+00  0.3496E+00
     -4.032  0.3973E+00  0.3747E+00
     -3.969  0.4251E+00  0.4016E+00
     -3.905  0.3922E+00  0.4264E+00
     -3.842  0.3215E+00  0.4467E+00
     -3.779  0.3403E+00  0.4683E+00
     -3.716  0.4324E+00  0.4956E+00
     -3.652  0.4520E+00  0.5242E+00
     -3.589  0.4077E+00  0.5500E+00
     -3.526  0.4234E+00  0.5767E+00
     -3.463  0.4214E+00  0.6034E+00
     -3.399  0.2653E+00  0.6202E+00
     -3.336  0.1041E+00  0.6267E+00
     -3.273  0.9438E-01  0.6327E+00
     -3.210  0.1962E+00  0.6451E+00
     -3.147  0.3004E+00  0.6641E+00
     -3.083  0.3796E+00  0.6881E+00
     -3.020  0.4363E+00  0.7157E+00
     -2.957  0.4577E+00  0.7446E+00
     -2.894  0.4222E+00  0.7713E+00
     -2.830  0.3213E+00  0.7916E+00
     -2.767  0.2212E+00  0.8056E+00
     -2.704  0.1637E+00  0.8160E+00
     -2.641  0.1089E+00  0.8229E+00
     -2.577  0.7675E-01  0.8277E+00
     -2.514  0.8881E-01  0.8333E+00
     -2.451  0.8866E-01  0.8389E+00
     -2.388  0.8378E-01  0.8442E+00
     -2.325  0.9743E-01  0.8504E+00
     -2.261  0.9323E-01  0.8563E+00
     -2.198  0.8791E-01  0.8619E+00
     -2.135  0.1203E+00  0.8695E+00
     -2.072  0.1849E+00  0.8812E+00
     -2.008  0.2315E+00  0.8958E+00
     -1.945  0.2147E+00  0.9094E+00
     -1.882  0.1369E+00  0.9180E+00
     -1.819  0.6480E-01  0.9221E+00
     -1.755  0.5928E-01  0.9259E+00
     -1.692  0.8460E-01  0.9312E+00
     -1.629  0.6972E-01  0.9356E+00
     -1.566  0.4034E-01  0.9382E+00
     -1.503  0.5689E-01  0.9418E+00
     -1.439  0.9705E-01  0.9479E+00
     -1.376  0.1070E+00  0.9547E+00
     -1.313  0.1218E+00  0.9624E+00
     -1.250  0.2448E+00  0.9779E+00
     -1.186  0.4948E+00  0.1009E+01
     -1.123  0.7559E+00  0.1057E+01
     -1.060  0.9154E+00  0.1115E+01
     -0.997  0.8271E+00  0.1167E+01
     -0.933  0.5203E+00  0.1200E+01
     -0.870  0.3003E+00  0.1219E+01
     -0.807  0.3395E+00  0.1240E+01
     -0.744  0.4702E+00  0.1270E+01
     -0.681  0.4124E+00  0.1296E+01
     -0.617  0.2144E+00  0.1310E+01
     -0.554  0.1107E+00  0.1317E+01
     -0.491  0.1133E+00  0.1324E+01
     -0.428  0.1467E+00  0.1333E+01
     -0.364  0.2358E+00  0.1348E+01
     -0.301  0.3527E+00  0.1371E+01
     -0.238  0.4069E+00  0.1396E+01
     -0.175  0.3670E+00  0.1419E+01
     -0.111  0.2552E+00  0.1436E+01
     -0.048  0.1567E+00  0.1445E+01
      0.015  0.1257E+00  0.1453E+01
      0.078  0.1370E+00  0.1462E+01
      0.141  0.1754E+00  0.1473E+01
      0.205  0.1852E+00  0.1485E+01
      0.268  0.1437E+00  0.1494E+01
      0.331  0.1787E+00  0.1505E+01
      0.394  0.3059E+00  0.1525E+01
      0.458  0.3097E+00  0.1544E+01
      0.521  0.1564E+00  0.1554E+01
      0.584  0.3987E-01  0.1557E+01
      0.647  0.1517E-01  0.1558E+01
      0.711  0.4334E-01  0.1560E+01
      0.774  0.8707E-01  0.1566E+01
      0.837  0.1002E+00  0.1572E+01
      0.900  0.9781E-01  0.1578E+01
      0.963  0.1116E+00  0.1585E+01
      1.027  0.1240E+00  0.1593E+01
      1.090  0.1540E+00  0.1603E+01
      1.153  0.2145E+00  0.1617E+01
      1.216  0.2207E+00  0.1630E+01
      1.280  0.1885E+00  0.1642E+01
      1.343  0.1840E+00  0.1654E+01
      1.406  0.1885E+00  0.1666E+01
      1.469  0.1926E+00  0.1678E+01
      1.532  0.2406E+00  0.1693E+01
      1.596  0.4076E+00  0.1719E+01
      1.659  0.6253E+00  0.1759E+01
      1.722  0.6765E+00  0.1801E+01
      1.785  0.5748E+00  0.1838E+01
      1.849  0.4523E+00  0.1866E+01
      1.912  0.4134E+00  0.1893E+01
      1.975  0.4842E+00  0.1923E+01
      2.038  0.5354E+00  0.1957E+01
      2.102  0.4698E+00  0.1987E+01
      2.165  0.3855E+00  0.2011E+01
      2.228  0.3763E+00  0.2035E+01
      2.291  0.3941E+00  0.2060E+01
      2.354  0.3978E+00  0.2085E+01
      2.418  0.4527E+00  0.2114E+01
      2.481  0.6128E+00  0.2152E+01
      2.544  0.7676E+00  0.2201E+01
      2.607  0.7601E+00  0.2249E+01
      2.671  0.5571E+00  0.2284E+01
      2.734  0.4029E+00  0.2310E+01
      2.797  0.4714E+00  0.2339E+01
      2.860  0.5656E+00  0.2375E+01
      2.924  0.6082E+00  0.2414E+01
      2.987  0.7005E+00  0.2458E+01
      3.050  0.7458E+00  0.2505E+01
      3.113  0.6493E+00  0.2546E+01
      3.176  0.5218E+00  0.2579E+01
      3.240  0.5294E+00  0.2613E+01
      3.303  0.6891E+00  0.2656E+01
      3.366  0.8695E+00  0.2711E+01
      3.429  0.8698E+00  0.2766E+01
      3.493  0.6719E+00  0.2809E+01
      3.556  0.5014E+00  0.2840E+01
      3.619  0.5142E+00  0.2873E+01
      3.682  0.5978E+00  0.2911E+01
      3.746  0.5647E+00  0.2946E+01
      3.809  0.4386E+00  0.2974E+01
      3.872  0.3992E+00  0.2999E+01
      3.935  0.4937E+00  0.3031E+01
      3.998  0.5900E+00  0.3068E+01
      4.062  0.6624E+00  0.3110E+01
      4.125  0.7213E+00  0.3155E+01
      4.188  0.6789E+00  0.3198E+01
      4.251  0.5453E+00  0.3233E+01
      4.315  0.5012E+00  0.3264E+01
      4.378  0.5290E+00  0.3298E+01
      4.441  0.4073E+00  0.3324E+01
      4.504  0.2323E+00  0.3338E+01
      4.568  0.2348E+00  0.3353E+01
      4.631  0.4023E+00  0.3379E+01
      4.694  0.5204E+00  0.3412E+01
      4.757  0.4408E+00  0.3439E+01
      4.820  0.2532E+00  0.3455E+01
      4.884  0.1273E+00  0.3463E+01
      4.947  0.1218E+00  0.3471E+01
      5.010  0.1576E+00  0.3481E+01
      5.073  0.1933E+00  0.3493E+01
      5.137  0.2204E+00  0.3507E+01
      5.200  0.1873E+00  0.3519E+01
      5.263  0.1523E+00  0.3529E+01
      5.326  0.1406E+00  0.3538E+01
      5.390  0.9191E-01  0.3543E+01
      5.453  0.3852E-01  0.3546E+01
      5.516  0.3061E-01  0.3548E+01
      5.579  0.4630E-01  0.3551E+01
      5.642  0.4340E-01  0.3554E+01
      5.706  0.2305E-01  0.3555E+01
      5.769  0.7346E-02  0.3555E+01
      5.832  0.1373E-02  0.3556E+01
      5.895  0.1376E-03  0.3556E+01
      5.959  0.7396E-05  0.3556E+01
      6.022  0.2120E-04  0.3556E+01
      6.085  0.3738E-03  0.3556E+01
      6.148  0.3185E-02  0.3556E+01
      6.212  0.1359E-01  0.3557E+01
      6.275  0.3165E-01  0.3559E+01
      6.338  0.4599E-01  0.3562E+01
      6.401  0.4714E-01  0.3565E+01
      6.464  0.4111E-01  0.3567E+01
      6.528  0.5677E-01  0.3571E+01
      6.591  0.1080E+00  0.3578E+01
      6.654  0.1594E+00  0.3588E+01
      6.717  0.1892E+00  0.3600E+01
      6.781  0.2292E+00  0.3614E+01
      6.844  0.2812E+00  0.3632E+01
      6.907  0.2678E+00  0.3649E+01
      6.970  0.1862E+00  0.3661E+01
      7.034  0.1681E+00  0.3671E+01
      7.097  0.2627E+00  0.3688E+01
      7.160  0.3898E+00  0.3712E+01
      7.223  0.4539E+00  0.3741E+01
      7.286  0.4081E+00  0.3767E+01
      7.350  0.2818E+00  0.3785E+01
      7.413  0.2291E+00  0.3799E+01
      7.476  0.3252E+00  0.3820E+01
      7.539  0.4361E+00  0.3847E+01
      7.603  0.4008E+00  0.3873E+01
      7.666  0.3582E+00  0.3895E+01
      7.729  0.5209E+00  0.3928E+01
      7.792  0.7610E+00  0.3976E+01
      7.856  0.8509E+00  0.4030E+01
      7.919  0.8417E+00  0.4083E+01
      7.982  0.8592E+00  0.4138E+01
      8.045  0.8562E+00  0.4192E+01
      8.108  0.6917E+00  0.4236E+01
      8.172  0.4781E+00  0.4266E+01
      8.235  0.4758E+00  0.4296E+01
      8.298  0.5191E+00  0.4329E+01
      8.361  0.4897E+00  0.4360E+01
      8.425  0.5724E+00  0.4396E+01
      8.488  0.6765E+00  0.4439E+01
      8.551  0.5980E+00  0.4477E+01
      8.614  0.4864E+00  0.4507E+01
      8.678  0.5051E+00  0.4539E+01
      8.741  0.5232E+00  0.4572E+01
      8.804  0.4471E+00  0.4601E+01
      8.867  0.4325E+00  0.4628E+01
      8.930  0.5938E+00  0.4666E+01
      8.994  0.8054E+00  0.4716E+01
      9.057  0.9202E+00  0.4775E+01
      9.120  0.9540E+00  0.4835E+01
      9.183  0.9044E+00  0.4892E+01
      9.247  0.7813E+00  0.4942E+01
      9.310  0.7083E+00  0.4986E+01
      9.373  0.7276E+00  0.5032E+01
      9.436  0.8155E+00  0.5084E+01
      9.500  0.9100E+00  0.5141E+01
      9.563  0.8950E+00  0.5198E+01
      9.626  0.7215E+00  0.5244E+01
      9.689  0.4987E+00  0.5275E+01
      9.752  0.3666E+00  0.5298E+01
      9.816  0.2625E+00  0.5315E+01
      9.879  0.1705E+00  0.5326E+01
      9.942  0.2065E+00  0.5339E+01
     10.005  0.3440E+00  0.5361E+01
     10.069  0.4012E+00  0.5386E+01
     10.132  0.4488E+00  0.5414E+01
     10.195  0.5247E+00  0.5447E+01
     10.258  0.4181E+00  0.5474E+01
     10.322  0.2007E+00  0.5487E+01
     10.385  0.9461E-01  0.5493E+01
     10.448  0.1263E+00  0.5501E+01
     10.511  0.1946E+00  0.5513E+01
     10.574  0.2238E+00  0.5527E+01
     10.638  0.1784E+00  0.5538E+01
     10.701  0.1035E+00  0.5545E+01
     10.764  0.7411E-01  0.5550E+01
     10.827  0.5930E-01  0.5553E+01
     10.891  0.2840E-01  0.5555E+01
     10.954  0.6761E-02  0.5556E+01
     11.017  0.7734E-03  0.5556E+01
     11.080  0.4196E-04  0.5556E+01
     11.144  0.1068E-05  0.5556E+01
     11.207  0.1265E-07  0.5556E+01
     11.270  0.6917E-10  0.5556E+01
     11.333  0.1737E-12  0.5556E+01
     11.396  0.1911E-15  0.5556E+01
     11.460  0.0000E+00  0.5556E+01
     11.523  0.0000E+00  0.5556E+01
     11.586  0.0000E+00  0.5556E+01
     11.649  0.0000E+00  0.5556E+01
     11.713  0.0000E+00  0.5556E+01
     11.776  0.0000E+00  0.5556E+01
