    8    8    9    1
  0.2002393E+02  0.5431000E-09  0.5431000E-09  0.5431000E-09  0.1000000E-14
  1.000000000000000E-004
  CAR 
 diamond Si                              
     32     20     25
 
  0.0000000E+00  0.0000000E+00  0.0000000E+00  0.2915452E-02
    1       -6.193329   1.000000
    2       -2.117860   1.000000
    3       -2.117860   1.000000
    4       -2.117860   1.000000
    5       -2.117860   1.000000
    6       -2.117860   1.000000
    7       -2.117860   1.000000
    8        2.837012   1.000000
    9        2.837012   1.000000
   10        2.837012   1.000000
   11        2.837012   1.000000
   12        2.837012   1.000000
   13        2.837012   1.000000
   14        5.647130   0.999990
   15        5.647130   0.999990
   16        5.647130   0.999990
   17        6.402201   0.000000
   18        6.402201   0.000000
   19        6.402201   0.000000
   20        6.402201   0.000000
   21        6.402201   0.000000
   22        6.402201   0.000000
   23        8.205275   0.000000
   24        8.205275   0.000000
   25        8.205276   0.000000
 
  0.1428571E+00  0.0000000E+00  0.0000000E+00  0.1749271E-01
    1       -6.105591   1.000000
    2       -3.148233   1.000000
    3       -2.090679   1.000000
    4       -2.090679   1.000000
    5       -2.090679   1.000000
    6       -2.090679   1.000000
    7       -0.982029   1.000000
    8        2.609005   1.000000
    9        2.609005   1.000000
   10        2.609005   1.000000
   11        2.609005   1.000000
   12        2.916525   1.000000
   13        2.916525   1.000000
   14        5.099422   1.000000
   15        5.321149   1.000000
   16        5.321149   1.000000
   17        6.261694   0.000005
   18        6.781445   0.000000
   19        6.854435   0.000000
   20        6.854435   0.000000
   21        6.854435   0.000000
   22        6.854435   0.000000
   23        8.001565   0.000000
   24        8.638409   0.000000
   25        8.638410   0.000000
 
  0.2857143E+00  0.0000000E+00  0.0000000E+00  0.1749271E-01
    1       -5.843098   1.000000
    2       -4.050869   1.000000
    3       -2.026023   1.000000
    4       -2.026023   1.000000
    5       -2.026023   1.000000
    6       -2.026023   1.000000
    7        0.229316   1.000000
    8        2.189852   1.000000
    9        2.189852   1.000000
   10        2.189852   1.000000
   11        2.189852   1.000000
   12        3.153664   1.000000
   13        3.153664   1.000000
   14        3.994807   1.000000
   15        4.690666   1.000000
   16        4.690666   1.000000
   17        6.338257   0.000000
   18        7.412024   0.000000
   19        7.534781   0.000000
   20        7.956380   0.000000
   21        7.956380   0.000000
   22        7.956380   0.000000
   23        7.956380   0.000000
   24        9.591882   0.000000
   25        9.591886   0.000000
 
  0.4285714E+00  0.0000000E+00  0.0000000E+00  0.1749271E-01
    1       -5.409009   1.000000
    2       -4.808597   1.000000
    3       -1.970702   1.000000
    4       -1.970702   1.000000
    5       -1.970702   1.000000
    6       -1.970702   1.000000
    7        1.484840   1.000000
    8        1.906616   1.000000
    9        1.906616   1.000000
   10        1.906616   1.000000
   11        1.906616   1.000000
   12        2.752914   1.000000
   13        3.540503   1.000000
   14        3.540503   1.000000
   15        4.063593   1.000000
   16        4.063593   1.000000
   17        6.603926   0.000000
   18        7.024830   0.000000
   19        8.284683   0.000000
   20        9.314856   0.000000
   21        9.380575   0.000000
   22        9.380575   0.000000
   23        9.380575   0.000000
   24        9.380575   0.000000
   25       10.743360   0.000000
 
  0.1428571E+00  0.1428571E+00  0.0000000E+00  0.3498542E-01
    1       -6.018279   1.000000
    2       -3.095744   1.000000
    3       -3.095744   1.000000
    4       -2.215993   1.000000
    5       -1.926903   1.000000
    6       -0.998697   1.000000
    7       -0.998697   1.000000
    8        2.045100   1.000000
    9        2.638534   1.000000
   10        2.638534   1.000000
   11        2.763966   1.000000
   12        2.763966   1.000000
   13        2.976793   1.000000
   14        4.364017   1.000000
   15        4.995244   1.000000
   16        5.562175   1.000000
   17        6.563383   0.000000
   18        6.739409   0.000000
   19        6.739409   0.000000
   20        7.197059   0.000000
   21        7.197059   0.000000
   22        7.803519   0.000000
   23        8.386610   0.000000
   24        8.480240   0.000000
   25        8.508468   0.000000
 
  0.2857143E+00  0.1428571E+00  0.0000000E+00  0.6997085E-01
    1       -5.757627   1.000000
    2       -3.983411   1.000000
    3       -2.948629   1.000000
    4       -2.346222   1.000000
    5       -1.709698   1.000000
    6       -1.068928   1.000000
    7        0.137341   1.000000
    8        1.618072   1.000000
    9        2.109798   1.000000
   10        2.515473   1.000000
   11        2.843457   1.000000
   12        2.888366   1.000000
   13        3.110941   1.000000
   14        3.390656   1.000000
   15        4.358563   1.000000
   16        5.111600   1.000000
   17        6.829971   0.000000
   18        7.166679   0.000000
   19        7.782220   0.000000
   20        7.872231   0.000000
   21        7.999238   0.000000
   22        8.246265   0.000000
   23        8.974750   0.000000
   24        9.111427   0.000000
   25        9.439047   0.000000
 
  0.4285714E+00  0.1428571E+00  0.0000000E+00  0.6997085E-01
    1       -5.326833   1.000000
    2       -4.731989   1.000000
    3       -2.739927   1.000000
    4       -2.522416   1.000000
    5       -1.458902   1.000000
    6       -1.226273   1.000000
    7        1.269242   1.000000
    8        1.485088   1.000000
    9        1.672272   1.000000
   10        2.357308   1.000000
   11        2.439896   1.000000
   12        2.605140   1.000000
   13        3.213662   1.000000
   14        3.650154   1.000000
   15        3.730853   1.000000
   16        4.355759   1.000000
   17        7.100501   0.000000
   18        7.511962   0.000000
   19        8.395982   0.000000
   20        8.604546   0.000000
   21        9.326320   0.000000
   22        9.476494   0.000000
   23        9.540091   0.000000
   24       10.152077   0.000000
   25       10.218073   0.000000
 
  0.2857143E+00  0.2857143E+00  0.0000000E+00  0.3498542E-01
    1       -5.502447   1.000000
    2       -3.786875   1.000000
    3       -3.786875   1.000000
    4       -2.707527   1.000000
    5       -1.356379   1.000000
    6       -0.130390   1.000000
    7       -0.130390   1.000000
    8        1.337266   1.000000
    9        2.249807   1.000000
   10        2.249807   1.000000
   11        2.515233   1.000000
   12        3.096702   1.000000
   13        3.096702   1.000000
   14        3.379869   1.000000
   15        3.715173   1.000000
   16        5.250551   1.000000
   17        7.027878   0.000000
   18        7.973754   0.000000
   19        7.973754   0.000000
   20        8.644307   0.000000
   21        8.757512   0.000000
   22        8.757512   0.000000
   23        8.929243   0.000000
   24        9.186241   0.000000
   25       10.496790   0.000000
 
  0.4285714E+00  0.2857143E+00  0.0000000E+00  0.6997085E-01
    1       -5.082393   1.000000
    2       -4.505634   1.000000
    3       -3.480973   1.000000
    4       -3.102973   1.000000
    5       -0.952681   1.000000
    6       -0.522532   1.000000
    7        0.765123   1.000000
    8        1.384249   1.000000
    9        1.636713   1.000000
   10        1.715326   1.000000
   11        2.584669   1.000000
   12        3.087265   1.000000
   13        3.222837   1.000000
   14        3.410927   1.000000
   15        3.884554   1.000000
   16        4.716931   1.000000
   17        7.753105   0.000000
   18        8.233315   0.000000
   19        8.609650   0.000000
   20        8.986060   0.000000
   21        9.057964   0.000000
   22        9.424338   0.000000
   23        9.474215   0.000000
   24        9.773271   0.000000
   25       10.166046   0.000000
 
  0.4285714E+00  0.4285714E+00  0.0000000E+00  0.3498542E-01
    1       -4.682631   1.000000
    2       -4.141091   1.000000
    3       -4.141091   1.000000
    4       -3.660668   1.000000
    5       -0.413536   1.000000
    6        0.169746   1.000000
    7        0.169746   1.000000
    8        0.887279   1.000000
    9        1.572409   1.000000
   10        1.994554   1.000000
   11        1.994554   1.000000
   12        2.469620   1.000000
   13        3.989456   1.000000
   14        4.081446   1.000000
   15        4.081446   1.000000
   16        4.678554   1.000000
   17        7.721548   0.000000
   18        8.410842   0.000000
   19        8.484712   0.000000
   20        8.484712   0.000000
   21        9.650473   0.000000
   22        9.650473   0.000000
   23        9.827457   0.000000
   24       10.159072   0.000000
   25       10.775864   0.000000
 
  0.1428571E+00  0.1428571E+00  0.1428571E+00  0.2332362E-01
    1       -5.931683   1.000000
    2       -3.055844   1.000000
    3       -3.055844   1.000000
    4       -3.055844   1.000000
    5       -1.026427   1.000000
    6       -1.026427   1.000000
    7       -1.026427   1.000000
    8        2.177591   1.000000
    9        2.177591   1.000000
   10        2.177591   1.000000
   11        3.053948   1.000000
   12        3.053948   1.000000
   13        3.053948   1.000000
   14        3.720225   1.000000
   15        5.293864   1.000000
   16        5.293864   1.000000
   17        6.647129   0.000000
   18        6.647129   0.000000
   19        6.647129   0.000000
   20        7.943509   0.000000
   21        7.943509   0.000000
   22        7.943510   0.000000
   23        8.028804   0.000000
   24        8.719542   0.000000
   25        8.719542   0.000000
 
  0.2857143E+00  0.1428571E+00  0.1428571E+00  0.6997085E-01
    1       -5.672910   1.000000
    2       -3.921043   1.000000
    3       -2.956871   1.000000
    4       -2.956871   1.000000
    5       -1.108919   1.000000
    6       -1.108919   1.000000
    7        0.003579   1.000000
    8        1.799178   1.000000
    9        1.799178   1.000000
   10        2.580238   1.000000
   11        2.810839   1.000000
   12        2.991328   1.000000
   13        2.991328   1.000000
   14        3.283656   1.000000
   15        4.735867   1.000000
   16        4.950591   1.000000
   17        6.890541   0.000000
   18        7.260209   0.000000
   19        7.260209   0.000000
   20        8.092482   0.000000
   21        8.367301   0.000000
   22        8.697258   0.000000
   23        9.224053   0.000000
   24        9.224053   0.000000
   25        9.472312   0.000000
 
  0.4285714E+00  0.1428571E+00  0.1428571E+00  0.6997085E-01
    1       -5.246030   1.000000
    2       -4.658002   1.000000
    3       -2.865009   1.000000
    4       -2.865009   1.000000
    5       -1.198796   1.000000
    6       -1.198796   1.000000
    7        0.982124   1.000000
    8        1.644411   1.000000
    9        1.644411   1.000000
   10        1.903261   1.000000
   11        2.797662   1.000000
   12        2.797662   1.000000
   13        3.248623   1.000000
   14        3.656184   1.000000
   15        4.107047   1.000000
   16        4.154295   1.000000
   17        7.267483   0.000000
   18        7.727284   0.000000
   19        8.479904   0.000000
   20        8.479904   0.000000
   21        9.060322   0.000000
   22        9.481625   0.000000
   23        9.997161   0.000000
   24        9.997161   0.000000
   25       10.234233   0.000000
 
  0.2857143E+00  0.2857143E+00  0.1428571E+00  0.6997085E-01
    1       -5.420807   1.000000
    2       -3.743480   1.000000
    3       -3.743480   1.000000
    4       -3.022966   1.000000
    5       -1.152482   1.000000
    6       -0.339872   1.000000
    7       -0.339872   1.000000
    8        1.643239   1.000000
    9        1.956913   1.000000
   10        2.296304   1.000000
   11        2.296304   1.000000
   12        3.315440   1.000000
   13        3.315440   1.000000
   14        3.448639   1.000000
   15        4.258830   1.000000
   16        5.118075   1.000000
   17        7.129281   0.000000
   18        7.527250   0.000000
   19        7.527250   0.000000
   20        8.045902   0.000000
   21        8.980867   0.000000
   22        9.325194   0.000000
   23        9.569609   0.000000
   24        9.569609   0.000000
   25       10.589863   0.000000
 
  0.4285714E+00  0.2857143E+00  0.1428571E+00  0.1399417E+00
    1       -5.006490   1.000000
    2       -4.440714   1.000000
    3       -3.483550   1.000000
    4       -3.210763   1.000000
    5       -1.043969   1.000000
    6       -0.740895   1.000000
    7        0.394080   1.000000
    8        1.145615   1.000000
    9        1.753423   1.000000
   10        2.015710   1.000000
   11        2.951125   1.000000
   12        3.359367   1.000000
   13        3.494188   1.000000
   14        3.613993   1.000000
   15        3.893153   1.000000
   16        4.630623   1.000000
   17        7.837228   0.000000
   18        7.921452   0.000000
   19        8.243934   0.000000
   20        8.718260   0.000000
   21        8.999619   0.000000
   22        9.124798   0.000000
   23        9.719735   0.000000
   24       10.001266   0.000000
   25       10.156846   0.000000
 
  0.4285714E+00  0.4285714E+00  0.1428571E+00  0.6997085E-01
    1       -4.616930   1.000000
    2       -4.096662   1.000000
    3       -4.096662   1.000000
    4       -3.662349   1.000000
    5       -0.705826   1.000000
    6       -0.207691   1.000000
    7       -0.207691   1.000000
    8        0.421801   1.000000
    9        2.051862   1.000000
   10        2.483455   1.000000
   11        2.483455   1.000000
   12        3.028189   1.000000
   13        4.033993   1.000000
   14        4.114110   1.000000
   15        4.114110   1.000000
   16        4.664388   1.000000
   17        7.783098   0.000000
   18        8.257670   0.000000
   19        8.465936   0.000000
   20        8.465936   0.000000
   21        9.106468   0.000000
   22        9.106468   0.000000
   23        9.543042   0.000000
   24        9.572372   0.000000
   25       10.446725   0.000000
 
  0.2857143E+00  0.2857143E+00  0.2857143E+00  0.2332362E-01
    1       -5.178187   1.000000
    2       -3.635375   1.000000
    3       -3.635375   1.000000
    4       -3.635375   1.000000
    5       -0.752615   1.000000
    6       -0.752615   1.000000
    7       -0.752615   1.000000
    8        1.130186   1.000000
    9        2.424333   1.000000
   10        2.424333   1.000000
   11        2.424333   1.000000
   12        3.648865   1.000000
   13        3.648865   1.000000
   14        3.648865   1.000000
   15        4.782220   1.000000
   16        4.782220   1.000000
   17        7.415445   0.000000
   18        7.415445   0.000000
   19        7.415445   0.000000
   20        7.488070   0.000000
   21        9.182493   0.000000
   22        9.182493   0.000000
   23       10.556419   0.000000
   24       10.556419   0.000000
   25       10.556426   0.000000
 
  0.4285714E+00  0.2857143E+00  0.2857143E+00  0.6997085E-01
    1       -4.783437   1.000000
    2       -4.255484   1.000000
    3       -3.534557   1.000000
    4       -3.534557   1.000000
    5       -1.054545   1.000000
    6       -1.054545   1.000000
    7       -0.247255   1.000000
    8        0.380278   1.000000
    9        2.555290   1.000000
   10        2.555290   1.000000
   11        3.425705   1.000000
   12        3.751817   1.000000
   13        3.751817   1.000000
   14        3.965907   1.000000
   15        4.364305   1.000000
   16        4.380528   1.000000
   17        7.749637   0.000000
   18        7.786379   0.000000
   19        8.054146   0.000000
   20        8.054146   0.000000
   21        8.934474   0.000000
   22        9.287719   0.000000
   23        9.287719   0.000000
   24        9.437054   0.000000
   25        9.581052   0.000000
 
  0.4285714E+00  0.4285714E+00  0.2857143E+00  0.6997085E-01
    1       -4.430081   1.000000
    2       -3.985926   1.000000
    3       -3.985926   1.000000
    4       -3.710051   1.000000
    5       -1.094745   1.000000
    6       -0.793362   1.000000
    7       -0.793362   1.000000
    8       -0.294418   1.000000
    9        3.019082   1.000000
   10        3.364225   1.000000
   11        3.364225   1.000000
   12        3.954770   1.000000
   13        4.158554   1.000000
   14        4.199633   1.000000
   15        4.199633   1.000000
   16        4.609967   1.000000
   17        7.647635   0.000000
   18        7.873583   0.000000
   19        8.053303   0.000000
   20        8.053303   0.000000
   21        8.858296   0.000000
   22        8.858296   0.000000
   23        9.161123   0.000000
   24        9.186576   0.000000
   25        9.362880   0.000000
 
  0.4285714E+00  0.4285714E+00  0.4285714E+00  0.2332362E-01
    1       -4.158367   1.000000
    2       -3.882442   1.000000
    3       -3.882442   1.000000
    4       -3.882442   1.000000
    5       -1.169135   1.000000
    6       -1.169135   1.000000
    7       -1.169135   1.000000
    8       -0.869710   1.000000
    9        4.011797   1.000000
   10        4.011797   1.000000
   11        4.011797   1.000000
   12        4.329561   1.000000
   13        4.329561   1.000000
   14        4.329561   1.000000
   15        4.495547   1.000000
   16        4.495547   1.000000
   17        7.163092   0.000000
   18        7.541652   0.000000
   19        7.541652   0.000000
   20        7.541652   0.000000
   21        8.929450   0.000000
   22        8.929450   0.000000
   23        8.929451   0.000000
   24        9.048237   0.000000
   25        9.048238   0.000000
