The current hostname is p0131.ten.osc.edu
The current working directory is /users/PAA0028/sjtuwjx1994
Switching to the working directory /users/PAA0028/sjtuwjx1994/repos/vasp_tutorials/lessons/lesson_02/kpoint_convergence/7
switching compiler chain
module load intel/19.0.5
module load intelmpi/2019.3
VASP_STD_BIN=/users/PAA0028/sjtuwjx1994/usr/local/vasp/vasp.5.4.1/bin/vasp_std
 running on   40 total cores
 distrk:  each k-point on   40 cores,    1 groups
 distr:  one band on    8 cores,    5 groups
 using from now: INCAR     
 vasp.5.4.1 05Feb16 (build Feb 24 2020 14:33:01) complex                        
  
 POSCAR found type information on POSCAR  Si
 POSCAR found :  1 types and       8 ions
 scaLAPACK will be used
 LDA part: xc-table for Pade appr. of Perdew
 POSCAR, INCAR and KPOINTS ok, starting setup
 FFT: planning ...
 WAVECAR not read
 entering main loop
       N       E                     dE             d eps       ncg     rms          rms(c)
DAV:   1     0.284915089521E+02    0.28492E+02   -0.78588E+03  1000   0.562E+02
DAV:   2    -0.411942382569E+02   -0.69686E+02   -0.66506E+02  1265   0.109E+02
DAV:   3    -0.439691982622E+02   -0.27750E+01   -0.27593E+01  1295   0.210E+01    0.113E+01
DAV:   4    -0.435015964288E+02    0.46760E+00   -0.44282E-01  1335   0.311E+00    0.663E+00
DAV:   5    -0.432727231316E+02    0.22887E+00   -0.49479E-01  1225   0.281E+00    0.391E-01
DAV:   6    -0.432773342707E+02   -0.46111E-02   -0.19266E-02  1275   0.612E-01    0.210E-01
DAV:   7    -0.432790307881E+02   -0.16965E-02   -0.33819E-03  1170   0.245E-01    0.121E-01
DAV:   8    -0.432790966847E+02   -0.65897E-04   -0.15200E-04  1015   0.597E-02
   1 F= -.43279097E+02 E0= -.43279097E+02  d E =-.432791E+02
 curvature:   0.00 expect dE= 0.000E+00 dE for cont linesearch  0.000E+00
 trial: gam= 0.00000 g(F)=  0.470E-59 g(S)=  0.112E+00 ort = 0.000E+00 (trialstep = 0.100E+01)
 search vector abs. value=  0.112E+00
 bond charge predicted
       N       E                     dE             d eps       ncg     rms          rms(c)
DAV:   1    -0.432917928606E+02   -0.12762E-01   -0.26889E+00  1155   0.645E+00
DAV:   2    -0.432977762603E+02   -0.59834E-02   -0.59834E-02  1200   0.103E+00
DAV:   3    -0.432978212488E+02   -0.44989E-04   -0.44988E-04  1270   0.105E-01    0.185E+00
DAV:   4    -0.432386477578E+02    0.59173E-01   -0.28395E-02  1030   0.601E-01    0.916E-01
DAV:   5    -0.432095349278E+02    0.29113E-01   -0.42967E-02  1165   0.747E-01    0.309E-01
DAV:   6    -0.432093147297E+02    0.22020E-03   -0.20764E-03  1150   0.204E-01    0.135E-01
DAV:   7    -0.432092533035E+02    0.61426E-04   -0.22875E-04  1065   0.543E-02
   2 F= -.43209253E+02 E0= -.43209253E+02  d E =0.698434E-01
 trial-energy change:    0.069843  1 .order    0.065580   -0.111685    0.242846
 step:   0.2999(harm=  0.3150)  dis= 0.00000  next Energy=   -43.295728 (dE=-0.166E-01)
 bond charge predicted
       N       E                     dE             d eps       ncg     rms          rms(c)
DAV:   1    -0.433355069658E+02   -0.12619E+00   -0.13671E+00  1150   0.471E+00
DAV:   2    -0.433391302533E+02   -0.36233E-02   -0.36233E-02  1200   0.756E-01
DAV:   3    -0.433391490639E+02   -0.18811E-04   -0.18811E-04  1120   0.717E-02    0.133E+00
DAV:   4    -0.433095916522E+02    0.29557E-01   -0.14102E-02  1020   0.431E-01    0.645E-01
DAV:   5    -0.432953005246E+02    0.14291E-01   -0.20885E-02  1135   0.528E-01    0.234E-01
DAV:   6    -0.432952833628E+02    0.17162E-04   -0.10160E-03  1165   0.146E-01    0.103E-01
DAV:   7    -0.432952176341E+02    0.65729E-04   -0.90884E-05   625   0.358E-02
   3 F= -.43295218E+02 E0= -.43295218E+02  d E =-.161209E-01
 curvature:  -0.16 expect dE=-0.331E-05 dE for cont linesearch -0.331E-05
 trial: gam= 0.00000 g(F)=  0.184E-59 g(S)=  0.210E-04 ort =-0.153E-02 (trialstep = 0.860E+00)
 search vector abs. value=  0.210E-04
 reached required accuracy - stopping structural energy minimisation
 writing wavefunctions

-----------------------
Resources requested:
nodes=1:ppn=40
mem=190440mb
-----------------------
Resources used:
cput=00:03:46
walltime=00:00:07
mem=0.001GB
vmem=0.000GB
-----------------------
Resource units charged (estimate):
0.007 RUs
-----------------------
