       N       E                     dE             d eps       ncg     rms          rms(c)
DAV:   1     0.284915089521E+02    0.28492E+02   -0.78588E+03  1000   0.562E+02
DAV:   2    -0.411942382569E+02   -0.69686E+02   -0.66506E+02  1265   0.109E+02
DAV:   3    -0.439691982622E+02   -0.27750E+01   -0.27593E+01  1295   0.210E+01    0.113E+01
DAV:   4    -0.435015964288E+02    0.46760E+00   -0.44282E-01  1335   0.311E+00    0.663E+00
DAV:   5    -0.432727231316E+02    0.22887E+00   -0.49479E-01  1225   0.281E+00    0.391E-01
DAV:   6    -0.432773342707E+02   -0.46111E-02   -0.19266E-02  1275   0.612E-01    0.210E-01
DAV:   7    -0.432790307881E+02   -0.16965E-02   -0.33819E-03  1170   0.245E-01    0.121E-01
DAV:   8    -0.432790966847E+02   -0.65897E-04   -0.15200E-04  1015   0.597E-02
   1 F= -.43279097E+02 E0= -.43279097E+02  d E =-.432791E+02
       N       E                     dE             d eps       ncg     rms          rms(c)
DAV:   1    -0.432917928606E+02   -0.12762E-01   -0.26889E+00  1155   0.645E+00
DAV:   2    -0.432977762603E+02   -0.59834E-02   -0.59834E-02  1200   0.103E+00
DAV:   3    -0.432978212488E+02   -0.44989E-04   -0.44988E-04  1270   0.105E-01    0.185E+00
DAV:   4    -0.432386477578E+02    0.59173E-01   -0.28395E-02  1030   0.601E-01    0.916E-01
DAV:   5    -0.432095349278E+02    0.29113E-01   -0.42967E-02  1165   0.747E-01    0.309E-01
DAV:   6    -0.432093147297E+02    0.22020E-03   -0.20764E-03  1150   0.204E-01    0.135E-01
DAV:   7    -0.432092533035E+02    0.61426E-04   -0.22875E-04  1065   0.543E-02
   2 F= -.43209253E+02 E0= -.43209253E+02  d E =0.698434E-01
       N       E                     dE             d eps       ncg     rms          rms(c)
DAV:   1    -0.433355069658E+02   -0.12619E+00   -0.13671E+00  1150   0.471E+00
DAV:   2    -0.433391302533E+02   -0.36233E-02   -0.36233E-02  1200   0.756E-01
DAV:   3    -0.433391490639E+02   -0.18811E-04   -0.18811E-04  1120   0.717E-02    0.133E+00
DAV:   4    -0.433095916522E+02    0.29557E-01   -0.14102E-02  1020   0.431E-01    0.645E-01
DAV:   5    -0.432953005246E+02    0.14291E-01   -0.20885E-02  1135   0.528E-01    0.234E-01
DAV:   6    -0.432952833628E+02    0.17162E-04   -0.10160E-03  1165   0.146E-01    0.103E-01
DAV:   7    -0.432952176341E+02    0.65729E-04   -0.90884E-05   625   0.358E-02
   3 F= -.43295218E+02 E0= -.43295218E+02  d E =-.161209E-01
