<?xml version="1.0" encoding="ISO-8859-1"?>
<modeling>
 <generator>
  <i name="program" type="string">vasp </i>
  <i name="version" type="string">5.4.1  </i>
  <i name="subversion" type="string">05Feb16 (build Feb 24 2020 14:33:01) complex                          parallel </i>
  <i name="platform" type="string">IFC91_ompi </i>
  <i name="date" type="string">2020 02 27 </i>
  <i name="time" type="string">21:49:01 </i>
 </generator>
 <incar>
  <i type="string" name="SYSTEM"> diamond Si</i>
  <i type="int" name="ISTART">     0</i>
  <i type="string" name="PREC">accurate</i>
  <i type="int" name="NSIM">     4</i>
  <i type="int" name="ICHARG">     2</i>
  <i type="int" name="NELM">    60</i>
  <i type="int" name="NELMDL">     3</i>
  <i type="int" name="NELMIN">     0</i>
  <i type="int" name="IBRION">     2</i>
  <i name="EDIFF">      0.00010000</i>
  <i name="EDIFFG">     -0.01000000</i>
  <i type="int" name="NSW">     9</i>
  <i type="int" name="ISIF">     3</i>
  <i name="ENCUT">    240.00000000</i>
  <i name="POTIM">      1.00000000</i>
  <i type="logical" name="LPLANE"> F  </i>
  <i type="int" name="ISMEAR">     0</i>
  <i name="SIGMA">      0.10000000</i>
  <v type="int" name="KPOINT_BSE">    -1     0     0     0</v>
  <i type="int" name="NELM">    60</i>
 </incar>
 <kpoints>
  <generation param="Monkhorst-Pack">
   <v type="int" name="divisions">       7        7        7 </v>
   <v name="usershift">      0.00000000       0.00000000       0.00000000 </v>
   <v name="genvec1">      0.14285714       0.00000000       0.00000000 </v>
   <v name="genvec2">      0.00000000       0.14285714       0.00000000 </v>
   <v name="genvec3">      0.00000000       0.00000000       0.14285714 </v>
   <v name="shift">      0.00000000       0.00000000       0.00000000 </v>
  </generation>
  <varray name="kpointlist" >
   <v>       0.00000000       0.00000000       0.00000000 </v>
   <v>       0.14285714       0.00000000       0.00000000 </v>
   <v>       0.28571429       0.00000000       0.00000000 </v>
   <v>       0.42857143       0.00000000       0.00000000 </v>
   <v>       0.14285714       0.14285714       0.00000000 </v>
   <v>       0.28571429       0.14285714       0.00000000 </v>
   <v>       0.42857143       0.14285714       0.00000000 </v>
   <v>       0.28571429       0.28571429       0.00000000 </v>
   <v>       0.42857143       0.28571429       0.00000000 </v>
   <v>       0.42857143       0.42857143       0.00000000 </v>
   <v>       0.14285714       0.14285714       0.14285714 </v>
   <v>       0.28571429       0.14285714       0.14285714 </v>
   <v>       0.42857143       0.14285714       0.14285714 </v>
   <v>       0.28571429       0.28571429       0.14285714 </v>
   <v>       0.42857143       0.28571429       0.14285714 </v>
   <v>       0.42857143       0.42857143       0.14285714 </v>
   <v>       0.28571429       0.28571429       0.28571429 </v>
   <v>       0.42857143       0.28571429       0.28571429 </v>
   <v>       0.42857143       0.42857143       0.28571429 </v>
   <v>       0.42857143       0.42857143       0.42857143 </v>
  </varray>
  <varray name="weights" >
   <v>       0.00291545 </v>
   <v>       0.01749271 </v>
   <v>       0.01749271 </v>
   <v>       0.01749271 </v>
   <v>       0.03498542 </v>
   <v>       0.06997085 </v>
   <v>       0.06997085 </v>
   <v>       0.03498542 </v>
   <v>       0.06997085 </v>
   <v>       0.03498542 </v>
   <v>       0.02332362 </v>
   <v>       0.06997085 </v>
   <v>       0.06997085 </v>
   <v>       0.06997085 </v>
   <v>       0.13994169 </v>
   <v>       0.06997085 </v>
   <v>       0.02332362 </v>
   <v>       0.06997085 </v>
   <v>       0.06997085 </v>
   <v>       0.02332362 </v>
  </varray>
 </kpoints>
 <parameters>
  <separator name="general" >
   <i type="string" name="SYSTEM">diamond Si</i>
   <i type="logical" name="LCOMPAT"> F  </i>
  </separator>
  <separator name="electronic" >
   <i type="string" name="PREC">accura</i>
   <i name="ENMAX">    240.00000000</i>
   <i name="ENAUG">    322.06900000</i>
   <i name="EDIFF">      0.00010000</i>
   <i type="int" name="IALGO">    38</i>
   <i type="int" name="IWAVPR">    11</i>
   <i type="int" name="NBANDS">    25</i>
   <i name="NELECT">     32.00000000</i>
   <i type="int" name="TURBO">     0</i>
   <i type="int" name="IRESTART">     0</i>
   <i type="int" name="NREBOOT">     0</i>
   <i type="int" name="NMIN">     0</i>
   <i name="EREF">      0.00000000</i>
   <separator name="electronic smearing" >
    <i type="int" name="ISMEAR">     0</i>
    <i name="SIGMA">      0.10000000</i>
    <i name="KSPACING">      0.50000000</i>
    <i type="logical" name="KGAMMA"> T  </i>
   </separator>
   <separator name="electronic projectors" >
    <i type="logical" name="LREAL"> F  </i>
    <v name="ROPT">      0.00000000</v>
    <i type="int" name="LMAXPAW">  -100</i>
    <i type="int" name="LMAXMIX">     2</i>
    <i type="logical" name="NLSPLINE"> F  </i>
   </separator>
   <separator name="electronic startup" >
    <i type="int" name="ISTART">     0</i>
    <i type="int" name="ICHARG">     2</i>
    <i type="int" name="INIWAV">     1</i>
   </separator>
   <separator name="electronic spin" >
    <i type="int" name="ISPIN">     1</i>
    <i type="logical" name="LNONCOLLINEAR"> F  </i>
    <v name="MAGMOM">      1.00000000      1.00000000      1.00000000      1.00000000      1.00000000      1.00000000      1.00000000      1.00000000</v>
    <i name="NUPDOWN">     -1.00000000</i>
    <i type="logical" name="LSORBIT"> F  </i>
    <v name="SAXIS">      0.00000000      0.00000000      1.00000000</v>
    <i type="logical" name="LSPIRAL"> F  </i>
    <v name="QSPIRAL">      0.00000000      0.00000000      0.00000000</v>
    <i type="logical" name="LZEROZ"> F  </i>
   </separator>
   <separator name="electronic exchange-correlation" >
    <i type="logical" name="LASPH"> F  </i>
    <i type="logical" name="LMETAGGA"> F  </i>
   </separator>
   <separator name="electronic convergence" >
    <i type="int" name="NELM">    60</i>
    <i type="int" name="NELMDL">     3</i>
    <i type="int" name="NELMIN">     0</i>
    <i name="ENINI">    240.00000000</i>
    <separator name="electronic convergence detail" >
     <i type="logical" name="LDIAG"> T  </i>
     <i type="logical" name="LSUBROT"> F  </i>
     <i name="WEIMIN">      0.00100000</i>
     <i name="EBREAK">      0.00000100</i>
     <i name="DEPER">      0.30000000</i>
     <i type="int" name="NRMM">     4</i>
     <i name="TIME">      0.40000000</i>
    </separator>
   </separator>
   <separator name="electronic mixer" >
    <i name="AMIX">      0.40000000</i>
    <i name="BMIX">      1.00000000</i>
    <i name="AMIN">      0.10000000</i>
    <i name="AMIX_MAG">      1.60000000</i>
    <i name="BMIX_MAG">      1.00000000</i>
    <separator name="electronic mixer details" >
     <i type="int" name="IMIX">     4</i>
     <i type="logical" name="MIXFIRST"> F  </i>
     <i type="int" name="MAXMIX">   -45</i>
     <i name="WC">    100.00000000</i>
     <i type="int" name="INIMIX">     1</i>
     <i type="int" name="MIXPRE">     1</i>
     <i type="int" name="MREMOVE">     5</i>
    </separator>
   </separator>
   <separator name="electronic dipolcorrection" >
    <i type="logical" name="LDIPOL"> F  </i>
    <i type="logical" name="LMONO"> F  </i>
    <i type="int" name="IDIPOL">     0</i>
    <i name="EPSILON">      1.00000000</i>
    <v name="DIPOL">   -100.00000000   -100.00000000   -100.00000000</v>
    <i name="EFIELD">      0.00000000</i>
   </separator>
  </separator>
  <separator name="grids" >
   <i type="int" name="NGX">    28</i>
   <i type="int" name="NGY">    28</i>
   <i type="int" name="NGZ">    28</i>
   <i type="int" name="NGXF">    56</i>
   <i type="int" name="NGYF">    56</i>
   <i type="int" name="NGZF">    56</i>
   <i type="logical" name="ADDGRID"> F  </i>
  </separator>
  <separator name="ionic" >
   <i type="int" name="NSW">     9</i>
   <i type="int" name="IBRION">     2</i>
   <i type="int" name="ISIF">     3</i>
   <i name="PSTRESS">      0.00000000</i>
   <i name="EDIFFG">     -0.01000000</i>
   <i type="int" name="NFREE">     1</i>
   <i name="POTIM">      1.00000000</i>
   <i name="SMASS">     -3.00000000</i>
   <i name="SCALEE">      1.00000000</i>
  </separator>
  <separator name="ionic md" >
   <i name="TEBEG">      0.00010000</i>
   <i name="TEEND">      0.00010000</i>
   <i type="int" name="NBLOCK">     1</i>
   <i type="int" name="KBLOCK">     9</i>
   <i type="int" name="NPACO">   256</i>
   <i name="APACO">     16.00000000</i>
  </separator>
  <separator name="symmetry" >
   <i type="int" name="ISYM">     2</i>
   <i name="SYMPREC">      0.00001000</i>
  </separator>
  <separator name="dos" >
   <i type="logical" name="LORBIT"> F  </i>
   <v name="RWIGS">     -1.00000000</v>
   <i type="int" name="NEDOS">   301</i>
   <i name="EMIN">     10.00000000</i>
   <i name="EMAX">    -10.00000000</i>
   <i name="EFERMI">      0.00000000</i>
  </separator>
  <separator name="writing" >
   <i type="int" name="NWRITE">     2</i>
   <i type="logical" name="LWAVE"> T  </i>
   <i type="logical" name="LCHARG"> T  </i>
   <i type="logical" name="LPARD"> F  </i>
   <i type="logical" name="LVTOT"> F  </i>
   <i type="logical" name="LVHAR"> F  </i>
   <i type="logical" name="LELF"> F  </i>
   <i type="logical" name="LOPTICS"> F  </i>
   <v name="STM">      0.00000000      0.00000000      0.00000000      0.00000000      0.00000000      0.00000000      0.00000000</v>
  </separator>
  <separator name="performance" >
   <i type="int" name="NPAR">     5</i>
   <i type="int" name="NSIM">     4</i>
   <i type="int" name="NBLK">    -1</i>
   <i type="logical" name="LPLANE"> F  </i>
   <i type="logical" name="LSCALAPACK"> T  </i>
   <i type="logical" name="LSCAAWARE"> F  </i>
   <i type="logical" name="LSCALU"> F  </i>
   <i type="logical" name="LASYNC"> F  </i>
   <i type="logical" name="LORBITALREAL"> F  </i>
  </separator>
  <separator name="miscellaneous" >
   <i type="int" name="IDIOT">     3</i>
   <i type="logical" name="LMUSIC"> F  </i>
   <v name="POMASS">     28.08500000</v>
   <v name="DARWINR">      0.00000000</v>
   <v name="DARWINV">      1.00000000</v>
   <i type="logical" name="LCORR"> T  </i>
  </separator>
  <i type="logical" name="GGA_COMPAT"> T  </i>
  <i type="logical" name="LBERRY"> F  </i>
  <i type="int" name="ICORELEVEL">     0</i>
  <i type="logical" name="LDAU"> F  </i>
  <i type="int" name="I_CONSTRAINED_M">     0</i>
  <separator name="electronic exchange-correlation" >
   <i type="string" name="GGA">--</i>
   <i type="int" name="VOSKOWN">     0</i>
   <i type="logical" name="LHFCALC"> F  </i>
   <i type="string" name="PRECFOCK"></i>
   <i type="logical" name="LSYMGRAD"> F  </i>
   <i type="logical" name="LHFONE"> F  </i>
   <i type="logical" name="LRHFCALC"> F  </i>
   <i type="logical" name="LTHOMAS"> F  </i>
   <i type="logical" name="LMODELHF"> F  </i>
   <i name="ENCUT4O">     -1.00000000</i>
   <i type="int" name="EXXOEP">     0</i>
   <i type="int" name="FOURORBIT">     0</i>
   <i name="AEXX">      0.00000000</i>
   <i name="HFALPHA">      0.00000000</i>
   <i name="MCALPHA">      0.00000000</i>
   <i name="ALDAX">      1.00000000</i>
   <i name="AGGAX">      1.00000000</i>
   <i name="ALDAC">      1.00000000</i>
   <i name="AGGAC">      1.00000000</i>
   <i type="int" name="NKREDX">     1</i>
   <i type="int" name="NKREDY">     1</i>
   <i type="int" name="NKREDZ">     1</i>
   <i type="logical" name="SHIFTRED"> F  </i>
   <i type="logical" name="ODDONLY"> F  </i>
   <i type="logical" name="EVENONLY"> F  </i>
   <i type="int" name="LMAXFOCK">     0</i>
   <i type="int" name="NMAXFOCKAE">     0</i>
   <i type="logical" name="LFOCKAEDFT"> F  </i>
   <i name="HFSCREEN">      0.00000000</i>
   <i name="HFSCREENC">      0.00000000</i>
   <i type="int" name="NBANDSGWLOW">     0</i>
  </separator>
  <separator name="vdW DFT" >
   <i type="logical" name="LUSE_VDW"> F  </i>
   <i name="Zab_VDW">     -0.84910000</i>
   <i name="PARAM1">      0.12340000</i>
   <i name="PARAM2">      1.00000000</i>
   <i name="PARAM3">      0.00000000</i>
  </separator>
  <separator name="model GW" >
   <i type="int" name="MODEL_GW">     0</i>
   <i name="MODEL_EPS0">     12.01436085</i>
   <i name="MODEL_ALPHA">      1.00000000</i>
  </separator>
  <separator name="linear response parameters" >
   <i type="logical" name="LEPSILON"> F  </i>
   <i type="logical" name="LRPA"> F  </i>
   <i type="logical" name="LNABLA"> F  </i>
   <i type="logical" name="LVEL"> F  </i>
   <i type="int" name="KINTER">     0</i>
   <i name="CSHIFT">      0.10000000</i>
   <i name="OMEGAMAX">     -1.00000000</i>
   <i name="DEG_THRESHOLD">      0.00200000</i>
  </separator>
  <separator name="orbital magnetization" >
   <i type="logical" name="NUCIND"> F  </i>
   <v name="MAGPOS">      0.00000000      0.00000000      0.00000000</v>
   <i type="logical" name="LNICSALL"> T  </i>
   <i type="logical" name="ORBITALMAG"> F  </i>
   <i type="logical" name="LMAGBLOCH"> F  </i>
   <i type="logical" name="LCHIMAG"> F  </i>
   <i type="logical" name="LGAUGE"> T  </i>
   <i type="int" name="MAGATOM">     0</i>
   <v name="MAGDIPOL">      0.00000000      0.00000000      0.00000000</v>
   <v name="AVECCONST">      0.00000000      0.00000000      0.00000000</v>
  </separator>
  <separator name="response functions" >
   <i type="logical" name="LADDER"> F  </i>
   <i type="logical" name="LFXC"> F  </i>
   <i type="logical" name="LHARTREE"> T  </i>
   <i type="int" name="IBSE">     0</i>
   <v type="int" name="KPOINT">    -1     0     0     0</v>
   <i type="logical" name="LTCTE"> F  </i>
   <i type="logical" name="LTETE"> F  </i>
   <i type="logical" name="LTRIPLET"> F  </i>
   <i type="logical" name="LFXCEPS"> F  </i>
   <i type="logical" name="LFXHEG"> F  </i>
   <i type="int" name="NATURALO">     0</i>
   <i type="logical" name="L2ORDER"> F  </i>
   <i type="logical" name="LUSEW"> F  </i>
   <i name="ENCUTGW">     -2.00000000</i>
   <i name="ENCUTGWSOFT">     -2.00000000</i>
   <i name="ENCUTLF">     -1.00000000</i>
   <i type="int" name="LMAXMP2">    -1</i>
   <i name="SCISSOR">      0.00000000</i>
   <i type="int" name="NOMEGA">     0</i>
   <i type="int" name="NOMEGAR">     0</i>
   <i type="int" name="NBANDSGW">    -1</i>
   <i type="int" name="NBANDSO">    -1</i>
   <i type="int" name="NBANDSV">    -1</i>
   <i type="int" name="NELM">    60</i>
   <i type="int" name="NELMHF">     1</i>
   <i type="int" name="DIM">     3</i>
   <i type="int" name="ANTIRES">     0</i>
   <i name="OMEGAMAX">    -30.00000000</i>
   <i name="OMEGAMIN">    -30.00000000</i>
   <i name="OMEGATL">   -200.00000000</i>
   <i type="int" name="OMEGAGRID">     0</i>
   <i name="CSHIFT">     -0.10000000</i>
   <i type="logical" name="SELFENERGY"> F  </i>
   <i type="logical" name="LSPECTRAL"> F  </i>
   <i type="logical" name="LSPECTRALGW"> F  </i>
   <i type="logical" name="LSINGLES"> F  </i>
   <i type="logical" name="LFERMIGW"> F  </i>
   <i type="logical" name="ODDONLYGW"> F  </i>
   <i type="logical" name="EVENONLYGW"> F  </i>
   <i type="int" name="NKREDLFX">     1</i>
   <i type="int" name="NKREDLFY">     1</i>
   <i type="int" name="NKREDLFZ">     1</i>
   <i type="int" name="MAXMEM">  1800</i>
   <i type="int" name="TELESCOPE">     0</i>
   <i type="int" name="TAUPAR">     1</i>
   <i type="int" name="OMEGAPAR">    -1</i>
   <i name="LAMBDA">      1.00000000</i>
  </separator>
  <separator name="External order field" >
   <i name="OFIELD_KAPPA">      0.00000000</i>
   <v name="OFIELD_K">      0.00000000      0.00000000      0.00000000</v>
   <i name="OFIELD_Q6_NEAR">      0.00000000</i>
   <i name="OFIELD_Q6_FAR">      0.00000000</i>
   <i name="OFIELD_A">      0.00000000</i>
  </separator>
 </parameters>
 <atominfo>
  <atoms>       8 </atoms>
  <types>       1 </types>
  <array name="atoms" >
   <dimension dim="1">ion</dimension>
   <field type="string">element</field>
   <field type="int">atomtype</field>
   <set>
    <rc><c>Si</c><c>   1</c></rc>
    <rc><c>Si</c><c>   1</c></rc>
    <rc><c>Si</c><c>   1</c></rc>
    <rc><c>Si</c><c>   1</c></rc>
    <rc><c>Si</c><c>   1</c></rc>
    <rc><c>Si</c><c>   1</c></rc>
    <rc><c>Si</c><c>   1</c></rc>
    <rc><c>Si</c><c>   1</c></rc>
   </set>
  </array>
  <array name="atomtypes" >
   <dimension dim="1">type</dimension>
   <field type="int">atomspertype</field>
   <field type="string">element</field>
   <field>mass</field>
   <field>valence</field>
   <field type="string">pseudopotential</field>
   <set>
    <rc><c>   8</c><c>Si</c><c>     28.08500000</c><c>      4.00000000</c><c>  PAW_PBE Si 05Jan2001                  </c></rc>
   </set>
  </array>
 </atominfo>
 <structure name="initialpos" >
  <crystal>
   <varray name="basis" >
    <v>       5.43100000       0.00000000       0.00000000 </v>
    <v>       0.00000000       5.43100000       0.00000000 </v>
    <v>       0.00000000       0.00000000       5.43100000 </v>
   </varray>
   <i name="volume">    160.19147799 </i>
   <varray name="rec_basis" >
    <v>       0.18412815       0.00000000       0.00000000 </v>
    <v>       0.00000000       0.18412815       0.00000000 </v>
    <v>       0.00000000       0.00000000       0.18412815 </v>
   </varray>
  </crystal>
  <varray name="positions" >
   <v>       0.00000000       0.00000000       0.00000000 </v>
   <v>       0.00000000       0.50000000       0.50000000 </v>
   <v>       0.50000000       0.00000000       0.50000000 </v>
   <v>       0.50000000       0.50000000       0.00000000 </v>
   <v>       0.25000000       0.25000000       0.25000000 </v>
   <v>       0.75000000       0.75000000       0.25000000 </v>
   <v>       0.75000000       0.25000000       0.75000000 </v>
   <v>       0.25000000       0.75000000       0.75000000 </v>
  </varray>
 </structure>
 <calculation>
  <scstep>
   <time name="dav">    0.36    0.36</time>
   <time name="total">    0.37    0.37</time>
   <energy>
    <i name="alphaZ">     13.44915721 </i>
    <i name="ewald">   -914.08579262 </i>
    <i name="hartreedc">    -44.03749844 </i>
    <i name="XCdc">    -74.41614067 </i>
    <i name="pawpsdc">    704.99039692 </i>
    <i name="pawaedc">   -564.24414232 </i>
    <i name="eentropy">     -0.02168787 </i>
    <i name="bandstr">     82.37100412 </i>
    <i name="atom">    824.48621262 </i>
    <i name="e_fr_energy">     28.49150895 </i>
    <i name="e_wo_entrp">     28.51319682 </i>
    <i name="e_0_energy">     28.50235288 </i>
   </energy>
  </scstep>
  <scstep>
   <time name="dav">    0.17    0.17</time>
   <time name="total">    0.17    0.18</time>
   <energy>
    <i name="e_fr_energy">    -41.19423826 </i>
    <i name="e_wo_entrp">    -41.19423799 </i>
    <i name="e_0_energy">    -41.19423812 </i>
   </energy>
  </scstep>
  <scstep>
   <time name="dav">    0.17    0.17</time>
   <time name="total">    0.18    0.19</time>
   <energy>
    <i name="e_fr_energy">    -43.96919826 </i>
    <i name="e_wo_entrp">    -43.96919826 </i>
    <i name="e_0_energy">    -43.96919826 </i>
   </energy>
  </scstep>
  <scstep>
   <time name="dav">    0.18    0.18</time>
   <time name="total">    0.19    0.20</time>
   <energy>
    <i name="e_fr_energy">    -43.50159643 </i>
    <i name="e_wo_entrp">    -43.50159643 </i>
    <i name="e_0_energy">    -43.50159643 </i>
   </energy>
  </scstep>
  <scstep>
   <time name="dav">    0.18    0.18</time>
   <time name="total">    0.20    0.20</time>
   <energy>
    <i name="e_fr_energy">    -43.27272313 </i>
    <i name="e_wo_entrp">    -43.27272244 </i>
    <i name="e_0_energy">    -43.27272279 </i>
   </energy>
  </scstep>
  <scstep>
   <time name="dav">    0.17    0.17</time>
   <time name="total">    0.19    0.19</time>
   <energy>
    <i name="e_fr_energy">    -43.27733427 </i>
    <i name="e_wo_entrp">    -43.27733377 </i>
    <i name="e_0_energy">    -43.27733402 </i>
   </energy>
  </scstep>
  <scstep>
   <time name="dav">    0.16    0.16</time>
   <time name="total">    0.17    0.18</time>
   <energy>
    <i name="e_fr_energy">    -43.27903079 </i>
    <i name="e_wo_entrp">    -43.27903047 </i>
    <i name="e_0_energy">    -43.27903063 </i>
   </energy>
  </scstep>
  <scstep>
   <time name="dav">    0.15    0.15</time>
   <time name="total">    0.16    0.16</time>
   <energy>
    <i name="alphaZ">     13.44915721 </i>
    <i name="ewald">   -914.08579262 </i>
    <i name="hartreedc">    -59.60832886 </i>
    <i name="XCdc">    -71.82356718 </i>
    <i name="pawpsdc">   4243.75023858 </i>
    <i name="pawaedc">  -4103.92969801 </i>
    <i name="eentropy">     -0.00000033 </i>
    <i name="bandstr">     24.48268190 </i>
    <i name="atom">    824.48621262 </i>
    <i name="e_fr_energy">    -43.27909668 </i>
    <i name="e_wo_entrp">    -43.27909636 </i>
    <i name="e_0_energy">    -43.27909652 </i>
   </energy>
  </scstep>
  <structure>
   <crystal>
    <varray name="basis" >
     <v>       5.43100000       0.00000000       0.00000000 </v>
     <v>       0.00000000       5.43100000       0.00000000 </v>
     <v>       0.00000000       0.00000000       5.43100000 </v>
    </varray>
    <i name="volume">    160.19147799 </i>
    <varray name="rec_basis" >
     <v>       0.18412815       0.00000000       0.00000000 </v>
     <v>       0.00000000       0.18412815       0.00000000 </v>
     <v>       0.00000000       0.00000000       0.18412815 </v>
    </varray>
   </crystal>
   <varray name="positions" >
    <v>       0.00000000       0.00000000       0.00000000 </v>
    <v>       0.00000000       0.50000000       0.50000000 </v>
    <v>       0.50000000       0.00000000       0.50000000 </v>
    <v>       0.50000000       0.50000000       0.00000000 </v>
    <v>       0.25000000       0.25000000       0.25000000 </v>
    <v>       0.75000000       0.75000000       0.25000000 </v>
    <v>       0.75000000       0.25000000       0.75000000 </v>
    <v>       0.25000000       0.75000000       0.75000000 </v>
   </varray>
  </structure>
  <varray name="forces" >
   <v>       0.00000000      -0.00000000      -0.00000000 </v>
   <v>      -0.00000000      -0.00000000      -0.00000000 </v>
   <v>      -0.00000000      -0.00000000      -0.00000000 </v>
   <v>      -0.00000000      -0.00000000      -0.00000000 </v>
   <v>       0.00000000       0.00000000       0.00000000 </v>
   <v>      -0.00000000       0.00000000       0.00000000 </v>
   <v>       0.00000000      -0.00000000       0.00000000 </v>
   <v>       0.00000000       0.00000000       0.00000000 </v>
  </varray>
  <varray name="stress" >
   <v>      17.57208463       0.00000000      -0.00000000 </v>
   <v>       0.00000000      17.57208463      -0.00000000 </v>
   <v>      -0.00000000      -0.00000000      17.57208463 </v>
  </varray>
  <energy>
   <i name="e_fr_energy">    -43.27909668 </i>
   <i name="e_wo_entrp">    -43.27909652 </i>
   <i name="e_0_energy">     -0.00000033 </i>
  </energy>
  <time name="totalsc">    1.84    1.90</time>
 </calculation>
 <calculation>
  <scstep>
   <time name="dav">    0.16    0.16</time>
   <time name="total">    0.16    0.16</time>
   <energy>
    <i name="alphaZ">     12.62920131 </i>
    <i name="ewald">   -895.11856404 </i>
    <i name="hartreedc">    -58.41681195 </i>
    <i name="XCdc">    -73.05059364 </i>
    <i name="pawpsdc">   4211.89964898 </i>
    <i name="pawaedc">  -4072.07989096 </i>
    <i name="eentropy">     -0.00000000 </i>
    <i name="bandstr">      6.35900483 </i>
    <i name="atom">    824.48621262 </i>
    <i name="e_fr_energy">    -43.29179286 </i>
    <i name="e_wo_entrp">    -43.29179286 </i>
    <i name="e_0_energy">    -43.29179286 </i>
   </energy>
  </scstep>
  <scstep>
   <time name="dav">    0.16    0.16</time>
   <time name="total">    0.16    0.16</time>
   <energy>
    <i name="e_fr_energy">    -43.29777626 </i>
    <i name="e_wo_entrp">    -43.29777626 </i>
    <i name="e_0_energy">    -43.29777626 </i>
   </energy>
  </scstep>
  <scstep>
   <time name="dav">    0.17    0.17</time>
   <time name="total">    0.18    0.18</time>
   <energy>
    <i name="e_fr_energy">    -43.29782125 </i>
    <i name="e_wo_entrp">    -43.29782125 </i>
    <i name="e_0_energy">    -43.29782125 </i>
   </energy>
  </scstep>
  <scstep>
   <time name="dav">    0.14    0.15</time>
   <time name="total">    0.16    0.16</time>
   <energy>
    <i name="e_fr_energy">    -43.23864776 </i>
    <i name="e_wo_entrp">    -43.23864776 </i>
    <i name="e_0_energy">    -43.23864776 </i>
   </energy>
  </scstep>
  <scstep>
   <time name="dav">    0.16    0.16</time>
   <time name="total">    0.18    0.18</time>
   <energy>
    <i name="e_fr_energy">    -43.20953493 </i>
    <i name="e_wo_entrp">    -43.20953492 </i>
    <i name="e_0_energy">    -43.20953492 </i>
   </energy>
  </scstep>
  <scstep>
   <time name="dav">    0.16    0.16</time>
   <time name="total">    0.17    0.18</time>
   <energy>
    <i name="e_fr_energy">    -43.20931473 </i>
    <i name="e_wo_entrp">    -43.20931472 </i>
    <i name="e_0_energy">    -43.20931473 </i>
   </energy>
  </scstep>
  <scstep>
   <time name="dav">    0.17    0.17</time>
   <time name="total">    0.17    0.18</time>
   <energy>
    <i name="alphaZ">     12.62920131 </i>
    <i name="ewald">   -895.11856404 </i>
    <i name="hartreedc">    -62.67540174 </i>
    <i name="XCdc">    -72.95810714 </i>
    <i name="pawpsdc">   3783.29574259 </i>
    <i name="pawaedc">  -3643.26465804 </i>
    <i name="eentropy">     -0.00000001 </i>
    <i name="bandstr">     10.39632115 </i>
    <i name="atom">    824.48621262 </i>
    <i name="e_fr_energy">    -43.20925330 </i>
    <i name="e_wo_entrp">    -43.20925329 </i>
    <i name="e_0_energy">    -43.20925330 </i>
   </energy>
  </scstep>
  <structure>
   <crystal>
    <varray name="basis" >
     <v>       5.54608086       0.00000000      -0.00000000 </v>
     <v>       0.00000000       5.54608086      -0.00000000 </v>
     <v>      -0.00000000      -0.00000000       5.54608086 </v>
    </varray>
    <i name="volume">    170.59197319 </i>
    <varray name="rec_basis" >
     <v>       0.18030750      -0.00000000       0.00000000 </v>
     <v>      -0.00000000       0.18030750       0.00000000 </v>
     <v>       0.00000000       0.00000000       0.18030750 </v>
    </varray>
   </crystal>
   <varray name="positions" >
    <v>       0.00000000      -0.00000000      -0.00000000 </v>
    <v>      -0.00000000       0.50000000       0.50000000 </v>
    <v>       0.50000000      -0.00000000       0.50000000 </v>
    <v>       0.50000000       0.50000000      -0.00000000 </v>
    <v>       0.25000000       0.25000000       0.25000000 </v>
    <v>       0.75000000       0.75000000       0.25000000 </v>
    <v>       0.75000000       0.25000000       0.75000000 </v>
    <v>       0.25000000       0.75000000       0.75000000 </v>
   </varray>
  </structure>
  <varray name="forces" >
   <v>      -0.00000000       0.00000000      -0.00000000 </v>
   <v>      -0.00000000       0.00000000      -0.00000000 </v>
   <v>      -0.00000000       0.00000000      -0.00000000 </v>
   <v>      -0.00000000      -0.00000000      -0.00000000 </v>
   <v>       0.00000000       0.00000000       0.00000000 </v>
   <v>       0.00000000      -0.00000000       0.00000000 </v>
   <v>       0.00000000      -0.00000000       0.00000000 </v>
   <v>       0.00000000      -0.00000000       0.00000000 </v>
  </varray>
  <varray name="stress" >
   <v>     -35.87885098      -0.00000000      -0.00000000 </v>
   <v>       0.00000000     -35.87885098       0.00000000 </v>
   <v>      -0.00000000      -0.00000000     -35.87885098 </v>
  </varray>
  <energy>
   <i name="e_fr_energy">    -43.20925330 </i>
   <i name="e_wo_entrp">    -43.20925330 </i>
   <i name="e_0_energy">     -0.00000001 </i>
  </energy>
  <time name="totalsc">    1.26    1.29</time>
 </calculation>
 <calculation>
  <scstep>
   <time name="dav">    0.16    0.16</time>
   <time name="total">    0.16    0.16</time>
   <energy>
    <i name="alphaZ">     13.19600342 </i>
    <i name="ewald">   -908.31414044 </i>
    <i name="hartreedc">    -63.61369797 </i>
    <i name="XCdc">    -72.11059180 </i>
    <i name="pawpsdc">   3808.59278333 </i>
    <i name="pawaedc">  -3668.56594140 </i>
    <i name="eentropy">     -0.00000084 </i>
    <i name="bandstr">     22.99386612 </i>
    <i name="atom">    824.48621262 </i>
    <i name="e_fr_energy">    -43.33550697 </i>
    <i name="e_wo_entrp">    -43.33550612 </i>
    <i name="e_0_energy">    -43.33550654 </i>
   </energy>
  </scstep>
  <scstep>
   <time name="dav">    0.16    0.16</time>
   <time name="total">    0.16    0.16</time>
   <energy>
    <i name="e_fr_energy">    -43.33913025 </i>
    <i name="e_wo_entrp">    -43.33912941 </i>
    <i name="e_0_energy">    -43.33912983 </i>
   </energy>
  </scstep>
  <scstep>
   <time name="dav">    0.15    0.16</time>
   <time name="total">    0.16    0.17</time>
   <energy>
    <i name="e_fr_energy">    -43.33914906 </i>
    <i name="e_wo_entrp">    -43.33914822 </i>
    <i name="e_0_energy">    -43.33914864 </i>
   </energy>
  </scstep>
  <scstep>
   <time name="dav">    0.14    0.14</time>
   <time name="total">    0.16    0.16</time>
   <energy>
    <i name="e_fr_energy">    -43.30959165 </i>
    <i name="e_wo_entrp">    -43.30959131 </i>
    <i name="e_0_energy">    -43.30959148 </i>
   </energy>
  </scstep>
  <scstep>
   <time name="dav">    0.16    0.16</time>
   <time name="total">    0.17    0.18</time>
   <energy>
    <i name="e_fr_energy">    -43.29530052 </i>
    <i name="e_wo_entrp">    -43.29530041 </i>
    <i name="e_0_energy">    -43.29530047 </i>
   </energy>
  </scstep>
  <scstep>
   <time name="dav">    0.16    0.16</time>
   <time name="total">    0.17    0.18</time>
   <energy>
    <i name="e_fr_energy">    -43.29528336 </i>
    <i name="e_wo_entrp">    -43.29528324 </i>
    <i name="e_0_energy">    -43.29528330 </i>
   </energy>
  </scstep>
  <scstep>
   <time name="dav">    0.11    0.11</time>
   <time name="total">    0.12    0.12</time>
   <energy>
    <i name="alphaZ">     13.19600342 </i>
    <i name="ewald">   -908.31414044 </i>
    <i name="hartreedc">    -60.55678858 </i>
    <i name="XCdc">    -72.16451026 </i>
    <i name="pawpsdc">   4098.42167915 </i>
    <i name="pawaedc">  -3958.53659814 </i>
    <i name="eentropy">     -0.00000011 </i>
    <i name="bandstr">     20.17292471 </i>
    <i name="atom">    824.48621262 </i>
    <i name="e_fr_energy">    -43.29521763 </i>
    <i name="e_wo_entrp">    -43.29521752 </i>
    <i name="e_0_energy">    -43.29521758 </i>
   </energy>
  </scstep>
  <structure>
   <crystal>
    <varray name="basis" >
     <v>       5.46550991       0.00000000      -0.00000000 </v>
     <v>       0.00000000       5.46550991      -0.00000000 </v>
     <v>      -0.00000000      -0.00000000       5.46550991 </v>
    </varray>
    <i name="volume">    163.26461152 </i>
    <varray name="rec_basis" >
     <v>       0.18296554      -0.00000000       0.00000000 </v>
     <v>      -0.00000000       0.18296554       0.00000000 </v>
     <v>       0.00000000       0.00000000       0.18296554 </v>
    </varray>
   </crystal>
   <varray name="positions" >
    <v>       0.00000000      -0.00000000      -0.00000000 </v>
    <v>      -0.00000000       0.50000000       0.50000000 </v>
    <v>       0.50000000      -0.00000000       0.50000000 </v>
    <v>       0.50000000       0.50000000      -0.00000000 </v>
    <v>       0.25000000       0.25000000       0.25000000 </v>
    <v>       0.75000000       0.75000000       0.25000000 </v>
    <v>       0.75000000       0.25000000       0.75000000 </v>
    <v>       0.25000000       0.75000000       0.75000000 </v>
   </varray>
  </structure>
  <varray name="forces" >
   <v>       0.00000000      -0.00000000       0.00000000 </v>
   <v>       0.00000000      -0.00000000       0.00000000 </v>
   <v>       0.00000000      -0.00000000       0.00000000 </v>
   <v>       0.00000000      -0.00000000       0.00000000 </v>
   <v>      -0.00000000      -0.00000000      -0.00000000 </v>
   <v>      -0.00000000       0.00000000      -0.00000000 </v>
   <v>       0.00000000       0.00000000      -0.00000000 </v>
   <v>      -0.00000000       0.00000000      -0.00000000 </v>
  </varray>
  <varray name="stress" >
   <v>      -0.23643972       0.00000000       0.00000000 </v>
   <v>       0.00000000      -0.23643972       0.00000000 </v>
   <v>      -0.00000000      -0.00000000      -0.23643972 </v>
  </varray>
  <energy>
   <i name="e_fr_energy">    -43.29521763 </i>
   <i name="e_wo_entrp">    -43.29521758 </i>
   <i name="e_0_energy">     -0.00000011 </i>
  </energy>
  <time name="totalsc">    1.20    1.24</time>
  <eigenvalues>
   <array>
    <dimension dim="1">band</dimension>
    <dimension dim="2">kpoint</dimension>
    <dimension dim="3">spin</dimension>
    <field>eigene</field>
    <field>occ</field>
    <set>
     <set comment="spin 1">
      <set comment="kpoint 1">
       <r>   -6.1933    1.0000 </r>
       <r>   -2.1179    1.0000 </r>
       <r>   -2.1179    1.0000 </r>
       <r>   -2.1179    1.0000 </r>
       <r>   -2.1179    1.0000 </r>
       <r>   -2.1179    1.0000 </r>
       <r>   -2.1179    1.0000 </r>
       <r>    2.8370    1.0000 </r>
       <r>    2.8370    1.0000 </r>
       <r>    2.8370    1.0000 </r>
       <r>    2.8370    1.0000 </r>
       <r>    2.8370    1.0000 </r>
       <r>    2.8370    1.0000 </r>
       <r>    5.6471    1.0000 </r>
       <r>    5.6471    1.0000 </r>
       <r>    5.6471    1.0000 </r>
       <r>    6.4022    0.0000 </r>
       <r>    6.4022    0.0000 </r>
       <r>    6.4022    0.0000 </r>
       <r>    6.4022    0.0000 </r>
       <r>    6.4022    0.0000 </r>
       <r>    6.4022    0.0000 </r>
       <r>    8.2053    0.0000 </r>
       <r>    8.2053    0.0000 </r>
       <r>    8.2053    0.0000 </r>
      </set>
      <set comment="kpoint 2">
       <r>   -6.1056    1.0000 </r>
       <r>   -3.1482    1.0000 </r>
       <r>   -2.0907    1.0000 </r>
       <r>   -2.0907    1.0000 </r>
       <r>   -2.0907    1.0000 </r>
       <r>   -2.0907    1.0000 </r>
       <r>   -0.9820    1.0000 </r>
       <r>    2.6090    1.0000 </r>
       <r>    2.6090    1.0000 </r>
       <r>    2.6090    1.0000 </r>
       <r>    2.6090    1.0000 </r>
       <r>    2.9165    1.0000 </r>
       <r>    2.9165    1.0000 </r>
       <r>    5.0994    1.0000 </r>
       <r>    5.3211    1.0000 </r>
       <r>    5.3211    1.0000 </r>
       <r>    6.2617    0.0000 </r>
       <r>    6.7814    0.0000 </r>
       <r>    6.8544    0.0000 </r>
       <r>    6.8544    0.0000 </r>
       <r>    6.8544    0.0000 </r>
       <r>    6.8544    0.0000 </r>
       <r>    8.0016    0.0000 </r>
       <r>    8.6384    0.0000 </r>
       <r>    8.6384    0.0000 </r>
      </set>
      <set comment="kpoint 3">
       <r>   -5.8431    1.0000 </r>
       <r>   -4.0509    1.0000 </r>
       <r>   -2.0260    1.0000 </r>
       <r>   -2.0260    1.0000 </r>
       <r>   -2.0260    1.0000 </r>
       <r>   -2.0260    1.0000 </r>
       <r>    0.2293    1.0000 </r>
       <r>    2.1899    1.0000 </r>
       <r>    2.1899    1.0000 </r>
       <r>    2.1899    1.0000 </r>
       <r>    2.1899    1.0000 </r>
       <r>    3.1537    1.0000 </r>
       <r>    3.1537    1.0000 </r>
       <r>    3.9948    1.0000 </r>
       <r>    4.6907    1.0000 </r>
       <r>    4.6907    1.0000 </r>
       <r>    6.3383    0.0000 </r>
       <r>    7.4120    0.0000 </r>
       <r>    7.5348    0.0000 </r>
       <r>    7.9564    0.0000 </r>
       <r>    7.9564    0.0000 </r>
       <r>    7.9564    0.0000 </r>
       <r>    7.9564    0.0000 </r>
       <r>    9.5919    0.0000 </r>
       <r>    9.5919    0.0000 </r>
      </set>
      <set comment="kpoint 4">
       <r>   -5.4090    1.0000 </r>
       <r>   -4.8086    1.0000 </r>
       <r>   -1.9707    1.0000 </r>
       <r>   -1.9707    1.0000 </r>
       <r>   -1.9707    1.0000 </r>
       <r>   -1.9707    1.0000 </r>
       <r>    1.4848    1.0000 </r>
       <r>    1.9066    1.0000 </r>
       <r>    1.9066    1.0000 </r>
       <r>    1.9066    1.0000 </r>
       <r>    1.9066    1.0000 </r>
       <r>    2.7529    1.0000 </r>
       <r>    3.5405    1.0000 </r>
       <r>    3.5405    1.0000 </r>
       <r>    4.0636    1.0000 </r>
       <r>    4.0636    1.0000 </r>
       <r>    6.6039    0.0000 </r>
       <r>    7.0248    0.0000 </r>
       <r>    8.2847    0.0000 </r>
       <r>    9.3149    0.0000 </r>
       <r>    9.3806    0.0000 </r>
       <r>    9.3806    0.0000 </r>
       <r>    9.3806    0.0000 </r>
       <r>    9.3806    0.0000 </r>
       <r>   10.7434    0.0000 </r>
      </set>
      <set comment="kpoint 5">
       <r>   -6.0183    1.0000 </r>
       <r>   -3.0957    1.0000 </r>
       <r>   -3.0957    1.0000 </r>
       <r>   -2.2160    1.0000 </r>
       <r>   -1.9269    1.0000 </r>
       <r>   -0.9987    1.0000 </r>
       <r>   -0.9987    1.0000 </r>
       <r>    2.0451    1.0000 </r>
       <r>    2.6385    1.0000 </r>
       <r>    2.6385    1.0000 </r>
       <r>    2.7640    1.0000 </r>
       <r>    2.7640    1.0000 </r>
       <r>    2.9768    1.0000 </r>
       <r>    4.3640    1.0000 </r>
       <r>    4.9952    1.0000 </r>
       <r>    5.5622    1.0000 </r>
       <r>    6.5634    0.0000 </r>
       <r>    6.7394    0.0000 </r>
       <r>    6.7394    0.0000 </r>
       <r>    7.1971    0.0000 </r>
       <r>    7.1971    0.0000 </r>
       <r>    7.8035    0.0000 </r>
       <r>    8.3866    0.0000 </r>
       <r>    8.4802    0.0000 </r>
       <r>    8.5085    0.0000 </r>
      </set>
      <set comment="kpoint 6">
       <r>   -5.7576    1.0000 </r>
       <r>   -3.9834    1.0000 </r>
       <r>   -2.9486    1.0000 </r>
       <r>   -2.3462    1.0000 </r>
       <r>   -1.7097    1.0000 </r>
       <r>   -1.0689    1.0000 </r>
       <r>    0.1373    1.0000 </r>
       <r>    1.6181    1.0000 </r>
       <r>    2.1098    1.0000 </r>
       <r>    2.5155    1.0000 </r>
       <r>    2.8435    1.0000 </r>
       <r>    2.8884    1.0000 </r>
       <r>    3.1109    1.0000 </r>
       <r>    3.3907    1.0000 </r>
       <r>    4.3586    1.0000 </r>
       <r>    5.1116    1.0000 </r>
       <r>    6.8300    0.0000 </r>
       <r>    7.1667    0.0000 </r>
       <r>    7.7822    0.0000 </r>
       <r>    7.8722    0.0000 </r>
       <r>    7.9992    0.0000 </r>
       <r>    8.2463    0.0000 </r>
       <r>    8.9747    0.0000 </r>
       <r>    9.1114    0.0000 </r>
       <r>    9.4390    0.0000 </r>
      </set>
      <set comment="kpoint 7">
       <r>   -5.3268    1.0000 </r>
       <r>   -4.7320    1.0000 </r>
       <r>   -2.7399    1.0000 </r>
       <r>   -2.5224    1.0000 </r>
       <r>   -1.4589    1.0000 </r>
       <r>   -1.2263    1.0000 </r>
       <r>    1.2692    1.0000 </r>
       <r>    1.4851    1.0000 </r>
       <r>    1.6723    1.0000 </r>
       <r>    2.3573    1.0000 </r>
       <r>    2.4399    1.0000 </r>
       <r>    2.6051    1.0000 </r>
       <r>    3.2137    1.0000 </r>
       <r>    3.6502    1.0000 </r>
       <r>    3.7309    1.0000 </r>
       <r>    4.3558    1.0000 </r>
       <r>    7.1005    0.0000 </r>
       <r>    7.5120    0.0000 </r>
       <r>    8.3960    0.0000 </r>
       <r>    8.6045    0.0000 </r>
       <r>    9.3263    0.0000 </r>
       <r>    9.4765    0.0000 </r>
       <r>    9.5401    0.0000 </r>
       <r>   10.1521    0.0000 </r>
       <r>   10.2181    0.0000 </r>
      </set>
      <set comment="kpoint 8">
       <r>   -5.5024    1.0000 </r>
       <r>   -3.7869    1.0000 </r>
       <r>   -3.7869    1.0000 </r>
       <r>   -2.7075    1.0000 </r>
       <r>   -1.3564    1.0000 </r>
       <r>   -0.1304    1.0000 </r>
       <r>   -0.1304    1.0000 </r>
       <r>    1.3373    1.0000 </r>
       <r>    2.2498    1.0000 </r>
       <r>    2.2498    1.0000 </r>
       <r>    2.5152    1.0000 </r>
       <r>    3.0967    1.0000 </r>
       <r>    3.0967    1.0000 </r>
       <r>    3.3799    1.0000 </r>
       <r>    3.7152    1.0000 </r>
       <r>    5.2506    1.0000 </r>
       <r>    7.0279    0.0000 </r>
       <r>    7.9738    0.0000 </r>
       <r>    7.9738    0.0000 </r>
       <r>    8.6443    0.0000 </r>
       <r>    8.7575    0.0000 </r>
       <r>    8.7575    0.0000 </r>
       <r>    8.9292    0.0000 </r>
       <r>    9.1862    0.0000 </r>
       <r>   10.4968    0.0000 </r>
      </set>
      <set comment="kpoint 9">
       <r>   -5.0824    1.0000 </r>
       <r>   -4.5056    1.0000 </r>
       <r>   -3.4810    1.0000 </r>
       <r>   -3.1030    1.0000 </r>
       <r>   -0.9527    1.0000 </r>
       <r>   -0.5225    1.0000 </r>
       <r>    0.7651    1.0000 </r>
       <r>    1.3842    1.0000 </r>
       <r>    1.6367    1.0000 </r>
       <r>    1.7153    1.0000 </r>
       <r>    2.5847    1.0000 </r>
       <r>    3.0873    1.0000 </r>
       <r>    3.2228    1.0000 </r>
       <r>    3.4109    1.0000 </r>
       <r>    3.8846    1.0000 </r>
       <r>    4.7169    1.0000 </r>
       <r>    7.7531    0.0000 </r>
       <r>    8.2333    0.0000 </r>
       <r>    8.6096    0.0000 </r>
       <r>    8.9861    0.0000 </r>
       <r>    9.0580    0.0000 </r>
       <r>    9.4243    0.0000 </r>
       <r>    9.4742    0.0000 </r>
       <r>    9.7733    0.0000 </r>
       <r>   10.1660    0.0000 </r>
      </set>
      <set comment="kpoint 10">
       <r>   -4.6826    1.0000 </r>
       <r>   -4.1411    1.0000 </r>
       <r>   -4.1411    1.0000 </r>
       <r>   -3.6607    1.0000 </r>
       <r>   -0.4135    1.0000 </r>
       <r>    0.1697    1.0000 </r>
       <r>    0.1697    1.0000 </r>
       <r>    0.8873    1.0000 </r>
       <r>    1.5724    1.0000 </r>
       <r>    1.9946    1.0000 </r>
       <r>    1.9946    1.0000 </r>
       <r>    2.4696    1.0000 </r>
       <r>    3.9895    1.0000 </r>
       <r>    4.0814    1.0000 </r>
       <r>    4.0814    1.0000 </r>
       <r>    4.6786    1.0000 </r>
       <r>    7.7215    0.0000 </r>
       <r>    8.4108    0.0000 </r>
       <r>    8.4847    0.0000 </r>
       <r>    8.4847    0.0000 </r>
       <r>    9.6505    0.0000 </r>
       <r>    9.6505    0.0000 </r>
       <r>    9.8275    0.0000 </r>
       <r>   10.1591    0.0000 </r>
       <r>   10.7759    0.0000 </r>
      </set>
      <set comment="kpoint 11">
       <r>   -5.9317    1.0000 </r>
       <r>   -3.0558    1.0000 </r>
       <r>   -3.0558    1.0000 </r>
       <r>   -3.0558    1.0000 </r>
       <r>   -1.0264    1.0000 </r>
       <r>   -1.0264    1.0000 </r>
       <r>   -1.0264    1.0000 </r>
       <r>    2.1776    1.0000 </r>
       <r>    2.1776    1.0000 </r>
       <r>    2.1776    1.0000 </r>
       <r>    3.0539    1.0000 </r>
       <r>    3.0539    1.0000 </r>
       <r>    3.0539    1.0000 </r>
       <r>    3.7202    1.0000 </r>
       <r>    5.2939    1.0000 </r>
       <r>    5.2939    1.0000 </r>
       <r>    6.6471    0.0000 </r>
       <r>    6.6471    0.0000 </r>
       <r>    6.6471    0.0000 </r>
       <r>    7.9435    0.0000 </r>
       <r>    7.9435    0.0000 </r>
       <r>    7.9435    0.0000 </r>
       <r>    8.0288    0.0000 </r>
       <r>    8.7195    0.0000 </r>
       <r>    8.7195    0.0000 </r>
      </set>
      <set comment="kpoint 12">
       <r>   -5.6729    1.0000 </r>
       <r>   -3.9210    1.0000 </r>
       <r>   -2.9569    1.0000 </r>
       <r>   -2.9569    1.0000 </r>
       <r>   -1.1089    1.0000 </r>
       <r>   -1.1089    1.0000 </r>
       <r>    0.0036    1.0000 </r>
       <r>    1.7992    1.0000 </r>
       <r>    1.7992    1.0000 </r>
       <r>    2.5802    1.0000 </r>
       <r>    2.8108    1.0000 </r>
       <r>    2.9913    1.0000 </r>
       <r>    2.9913    1.0000 </r>
       <r>    3.2837    1.0000 </r>
       <r>    4.7359    1.0000 </r>
       <r>    4.9506    1.0000 </r>
       <r>    6.8905    0.0000 </r>
       <r>    7.2602    0.0000 </r>
       <r>    7.2602    0.0000 </r>
       <r>    8.0925    0.0000 </r>
       <r>    8.3673    0.0000 </r>
       <r>    8.6973    0.0000 </r>
       <r>    9.2241    0.0000 </r>
       <r>    9.2241    0.0000 </r>
       <r>    9.4723    0.0000 </r>
      </set>
      <set comment="kpoint 13">
       <r>   -5.2460    1.0000 </r>
       <r>   -4.6580    1.0000 </r>
       <r>   -2.8650    1.0000 </r>
       <r>   -2.8650    1.0000 </r>
       <r>   -1.1988    1.0000 </r>
       <r>   -1.1988    1.0000 </r>
       <r>    0.9821    1.0000 </r>
       <r>    1.6444    1.0000 </r>
       <r>    1.6444    1.0000 </r>
       <r>    1.9033    1.0000 </r>
       <r>    2.7977    1.0000 </r>
       <r>    2.7977    1.0000 </r>
       <r>    3.2486    1.0000 </r>
       <r>    3.6562    1.0000 </r>
       <r>    4.1070    1.0000 </r>
       <r>    4.1543    1.0000 </r>
       <r>    7.2675    0.0000 </r>
       <r>    7.7273    0.0000 </r>
       <r>    8.4799    0.0000 </r>
       <r>    8.4799    0.0000 </r>
       <r>    9.0603    0.0000 </r>
       <r>    9.4816    0.0000 </r>
       <r>    9.9972    0.0000 </r>
       <r>    9.9972    0.0000 </r>
       <r>   10.2342    0.0000 </r>
      </set>
      <set comment="kpoint 14">
       <r>   -5.4208    1.0000 </r>
       <r>   -3.7435    1.0000 </r>
       <r>   -3.7435    1.0000 </r>
       <r>   -3.0230    1.0000 </r>
       <r>   -1.1525    1.0000 </r>
       <r>   -0.3399    1.0000 </r>
       <r>   -0.3399    1.0000 </r>
       <r>    1.6432    1.0000 </r>
       <r>    1.9569    1.0000 </r>
       <r>    2.2963    1.0000 </r>
       <r>    2.2963    1.0000 </r>
       <r>    3.3154    1.0000 </r>
       <r>    3.3154    1.0000 </r>
       <r>    3.4486    1.0000 </r>
       <r>    4.2588    1.0000 </r>
       <r>    5.1181    1.0000 </r>
       <r>    7.1293    0.0000 </r>
       <r>    7.5273    0.0000 </r>
       <r>    7.5273    0.0000 </r>
       <r>    8.0459    0.0000 </r>
       <r>    8.9809    0.0000 </r>
       <r>    9.3252    0.0000 </r>
       <r>    9.5696    0.0000 </r>
       <r>    9.5696    0.0000 </r>
       <r>   10.5899    0.0000 </r>
      </set>
      <set comment="kpoint 15">
       <r>   -5.0065    1.0000 </r>
       <r>   -4.4407    1.0000 </r>
       <r>   -3.4835    1.0000 </r>
       <r>   -3.2108    1.0000 </r>
       <r>   -1.0440    1.0000 </r>
       <r>   -0.7409    1.0000 </r>
       <r>    0.3941    1.0000 </r>
       <r>    1.1456    1.0000 </r>
       <r>    1.7534    1.0000 </r>
       <r>    2.0157    1.0000 </r>
       <r>    2.9511    1.0000 </r>
       <r>    3.3594    1.0000 </r>
       <r>    3.4942    1.0000 </r>
       <r>    3.6140    1.0000 </r>
       <r>    3.8932    1.0000 </r>
       <r>    4.6306    1.0000 </r>
       <r>    7.8372    0.0000 </r>
       <r>    7.9215    0.0000 </r>
       <r>    8.2439    0.0000 </r>
       <r>    8.7183    0.0000 </r>
       <r>    8.9996    0.0000 </r>
       <r>    9.1248    0.0000 </r>
       <r>    9.7197    0.0000 </r>
       <r>   10.0013    0.0000 </r>
       <r>   10.1568    0.0000 </r>
      </set>
      <set comment="kpoint 16">
       <r>   -4.6169    1.0000 </r>
       <r>   -4.0967    1.0000 </r>
       <r>   -4.0967    1.0000 </r>
       <r>   -3.6623    1.0000 </r>
       <r>   -0.7058    1.0000 </r>
       <r>   -0.2077    1.0000 </r>
       <r>   -0.2077    1.0000 </r>
       <r>    0.4218    1.0000 </r>
       <r>    2.0519    1.0000 </r>
       <r>    2.4835    1.0000 </r>
       <r>    2.4835    1.0000 </r>
       <r>    3.0282    1.0000 </r>
       <r>    4.0340    1.0000 </r>
       <r>    4.1141    1.0000 </r>
       <r>    4.1141    1.0000 </r>
       <r>    4.6644    1.0000 </r>
       <r>    7.7831    0.0000 </r>
       <r>    8.2577    0.0000 </r>
       <r>    8.4659    0.0000 </r>
       <r>    8.4659    0.0000 </r>
       <r>    9.1065    0.0000 </r>
       <r>    9.1065    0.0000 </r>
       <r>    9.5430    0.0000 </r>
       <r>    9.5724    0.0000 </r>
       <r>   10.4467    0.0000 </r>
      </set>
      <set comment="kpoint 17">
       <r>   -5.1782    1.0000 </r>
       <r>   -3.6354    1.0000 </r>
       <r>   -3.6354    1.0000 </r>
       <r>   -3.6354    1.0000 </r>
       <r>   -0.7526    1.0000 </r>
       <r>   -0.7526    1.0000 </r>
       <r>   -0.7526    1.0000 </r>
       <r>    1.1302    1.0000 </r>
       <r>    2.4243    1.0000 </r>
       <r>    2.4243    1.0000 </r>
       <r>    2.4243    1.0000 </r>
       <r>    3.6489    1.0000 </r>
       <r>    3.6489    1.0000 </r>
       <r>    3.6489    1.0000 </r>
       <r>    4.7822    1.0000 </r>
       <r>    4.7822    1.0000 </r>
       <r>    7.4154    0.0000 </r>
       <r>    7.4154    0.0000 </r>
       <r>    7.4154    0.0000 </r>
       <r>    7.4881    0.0000 </r>
       <r>    9.1825    0.0000 </r>
       <r>    9.1825    0.0000 </r>
       <r>   10.5564    0.0000 </r>
       <r>   10.5564    0.0000 </r>
       <r>   10.5564    0.0000 </r>
      </set>
      <set comment="kpoint 18">
       <r>   -4.7834    1.0000 </r>
       <r>   -4.2555    1.0000 </r>
       <r>   -3.5346    1.0000 </r>
       <r>   -3.5346    1.0000 </r>
       <r>   -1.0545    1.0000 </r>
       <r>   -1.0545    1.0000 </r>
       <r>   -0.2473    1.0000 </r>
       <r>    0.3803    1.0000 </r>
       <r>    2.5553    1.0000 </r>
       <r>    2.5553    1.0000 </r>
       <r>    3.4257    1.0000 </r>
       <r>    3.7518    1.0000 </r>
       <r>    3.7518    1.0000 </r>
       <r>    3.9659    1.0000 </r>
       <r>    4.3643    1.0000 </r>
       <r>    4.3805    1.0000 </r>
       <r>    7.7496    0.0000 </r>
       <r>    7.7864    0.0000 </r>
       <r>    8.0541    0.0000 </r>
       <r>    8.0541    0.0000 </r>
       <r>    8.9345    0.0000 </r>
       <r>    9.2877    0.0000 </r>
       <r>    9.2877    0.0000 </r>
       <r>    9.4371    0.0000 </r>
       <r>    9.5811    0.0000 </r>
      </set>
      <set comment="kpoint 19">
       <r>   -4.4301    1.0000 </r>
       <r>   -3.9859    1.0000 </r>
       <r>   -3.9859    1.0000 </r>
       <r>   -3.7101    1.0000 </r>
       <r>   -1.0947    1.0000 </r>
       <r>   -0.7934    1.0000 </r>
       <r>   -0.7934    1.0000 </r>
       <r>   -0.2944    1.0000 </r>
       <r>    3.0191    1.0000 </r>
       <r>    3.3642    1.0000 </r>
       <r>    3.3642    1.0000 </r>
       <r>    3.9548    1.0000 </r>
       <r>    4.1586    1.0000 </r>
       <r>    4.1996    1.0000 </r>
       <r>    4.1996    1.0000 </r>
       <r>    4.6100    1.0000 </r>
       <r>    7.6476    0.0000 </r>
       <r>    7.8736    0.0000 </r>
       <r>    8.0533    0.0000 </r>
       <r>    8.0533    0.0000 </r>
       <r>    8.8583    0.0000 </r>
       <r>    8.8583    0.0000 </r>
       <r>    9.1611    0.0000 </r>
       <r>    9.1866    0.0000 </r>
       <r>    9.3629    0.0000 </r>
      </set>
      <set comment="kpoint 20">
       <r>   -4.1584    1.0000 </r>
       <r>   -3.8824    1.0000 </r>
       <r>   -3.8824    1.0000 </r>
       <r>   -3.8824    1.0000 </r>
       <r>   -1.1691    1.0000 </r>
       <r>   -1.1691    1.0000 </r>
       <r>   -1.1691    1.0000 </r>
       <r>   -0.8697    1.0000 </r>
       <r>    4.0118    1.0000 </r>
       <r>    4.0118    1.0000 </r>
       <r>    4.0118    1.0000 </r>
       <r>    4.3296    1.0000 </r>
       <r>    4.3296    1.0000 </r>
       <r>    4.3296    1.0000 </r>
       <r>    4.4955    1.0000 </r>
       <r>    4.4955    1.0000 </r>
       <r>    7.1631    0.0000 </r>
       <r>    7.5417    0.0000 </r>
       <r>    7.5417    0.0000 </r>
       <r>    7.5417    0.0000 </r>
       <r>    8.9295    0.0000 </r>
       <r>    8.9295    0.0000 </r>
       <r>    8.9295    0.0000 </r>
       <r>    9.0482    0.0000 </r>
       <r>    9.0482    0.0000 </r>
      </set>
     </set>
    </set>
   </array>
  </eigenvalues>
  <separator name="orbital magnetization" >
   <v name="MAGDIPOLOUT">      0.00000000      0.00000000      0.00000000</v>
  </separator>
  <dos>
   <i name="efermi">      5.94907174 </i>
   <total>
    <array>
     <dimension dim="1">gridpoints</dimension>
     <dimension dim="2">spin</dimension>
     <field>energy</field>
     <field>total</field>
     <field>integrated</field>
     <set>
      <set comment="spin 1">
       <r>    -7.1933     0.0000     0.0000 </r>
       <r>    -7.1301     0.0000     0.0000 </r>
       <r>    -7.0669     0.0000     0.0000 </r>
       <r>    -7.0036     0.0000     0.0000 </r>
       <r>    -6.9404     0.0000     0.0000 </r>
       <r>    -6.8772     0.0000     0.0000 </r>
       <r>    -6.8139     0.0000     0.0000 </r>
       <r>    -6.7507     0.0000     0.0000 </r>
       <r>    -6.6875     0.0000     0.0000 </r>
       <r>    -6.6243     0.0000     0.0000 </r>
       <r>    -6.5610     0.0000     0.0000 </r>
       <r>    -6.4978     0.0000     0.0000 </r>
       <r>    -6.4346     0.0000     0.0000 </r>
       <r>    -6.3713     0.0006     0.0000 </r>
       <r>    -6.3081     0.0054     0.0004 </r>
       <r>    -6.2449     0.0298     0.0023 </r>
       <r>    -6.1816     0.1062     0.0090 </r>
       <r>    -6.1184     0.2636     0.0256 </r>
       <r>    -6.0552     0.4695     0.0553 </r>
       <r>    -5.9919     0.6105     0.0939 </r>
       <r>    -5.9287     0.6108     0.1326 </r>
       <r>    -5.8655     0.6033     0.1707 </r>
       <r>    -5.8023     0.8203     0.2226 </r>
       <r>    -5.7390     1.2055     0.2988 </r>
       <r>    -5.6758     1.3312     0.3830 </r>
       <r>    -5.6126     1.0074     0.4467 </r>
       <r>    -5.5493     0.6849     0.4900 </r>
       <r>    -5.4861     0.8634     0.5446 </r>
       <r>    -5.4229     1.3406     0.6293 </r>
       <r>    -5.3596     1.6379     0.7329 </r>
       <r>    -5.2964     1.6718     0.8386 </r>
       <r>    -5.2332     1.5423     0.9361 </r>
       <r>    -5.1699     1.3098     1.0189 </r>
       <r>    -5.1067     1.3755     1.1059 </r>
       <r>    -5.0435     1.8900     1.2254 </r>
       <r>    -4.9803     2.0374     1.3543 </r>
       <r>    -4.9170     1.3621     1.4404 </r>
       <r>    -4.8538     0.9051     1.4976 </r>
       <r>    -4.7906     1.4105     1.5868 </r>
       <r>    -4.7273     2.2260     1.7276 </r>
       <r>    -4.6641     2.6079     1.8925 </r>
       <r>    -4.6009     2.4052     2.0445 </r>
       <r>    -4.5376     2.1460     2.1802 </r>
       <r>    -4.4744     2.5935     2.3442 </r>
       <r>    -4.4112     2.8932     2.5271 </r>
       <r>    -4.3479     2.0435     2.6564 </r>
       <r>    -4.2847     1.2378     2.7346 </r>
       <r>    -4.2215     1.3694     2.8212 </r>
       <r>    -4.1583     2.1167     2.9551 </r>
       <r>    -4.0950     3.0274     3.1465 </r>
       <r>    -4.0318     3.5757     3.3726 </r>
       <r>    -3.9686     3.8261     3.6145 </r>
       <r>    -3.9053     3.5300     3.8377 </r>
       <r>    -3.8421     2.8936     4.0207 </r>
       <r>    -3.7789     3.0623     4.2143 </r>
       <r>    -3.7156     3.8915     4.4604 </r>
       <r>    -3.6524     4.0682     4.7176 </r>
       <r>    -3.5892     3.6692     4.9496 </r>
       <r>    -3.5260     3.8107     5.1906 </r>
       <r>    -3.4627     3.7928     5.4304 </r>
       <r>    -3.3995     2.3879     5.5814 </r>
       <r>    -3.3363     0.9368     5.6406 </r>
       <r>    -3.2730     0.8495     5.6943 </r>
       <r>    -3.2098     1.7659     5.8060 </r>
       <r>    -3.1466     2.7032     5.9769 </r>
       <r>    -3.0833     3.4168     6.1929 </r>
       <r>    -3.0201     3.9267     6.4412 </r>
       <r>    -2.9569     4.1191     6.7017 </r>
       <r>    -2.8936     3.8002     6.9420 </r>
       <r>    -2.8304     2.8918     7.1248 </r>
       <r>    -2.7672     1.9911     7.2507 </r>
       <r>    -2.7040     1.4731     7.3439 </r>
       <r>    -2.6407     0.9799     7.4058 </r>
       <r>    -2.5775     0.6907     7.4495 </r>
       <r>    -2.5143     0.7993     7.5000 </r>
       <r>    -2.4510     0.7979     7.5505 </r>
       <r>    -2.3878     0.7540     7.5982 </r>
       <r>    -2.3246     0.8768     7.6536 </r>
       <r>    -2.2613     0.8390     7.7067 </r>
       <r>    -2.1981     0.7911     7.7567 </r>
       <r>    -2.1349     1.0831     7.8252 </r>
       <r>    -2.0716     1.6645     7.9304 </r>
       <r>    -2.0084     2.0832     8.0621 </r>
       <r>    -1.9452     1.9323     8.1843 </r>
       <r>    -1.8820     1.2323     8.2622 </r>
       <r>    -1.8187     0.5832     8.2991 </r>
       <r>    -1.7555     0.5335     8.3329 </r>
       <r>    -1.6923     0.7614     8.3810 </r>
       <r>    -1.6290     0.6275     8.4207 </r>
       <r>    -1.5658     0.3630     8.4436 </r>
       <r>    -1.5026     0.5120     8.4760 </r>
       <r>    -1.4393     0.8735     8.5312 </r>
       <r>    -1.3761     0.9627     8.5921 </r>
       <r>    -1.3129     1.0958     8.6614 </r>
       <r>    -1.2496     2.2034     8.8007 </r>
       <r>    -1.1864     4.4535     9.0823 </r>
       <r>    -1.1232     6.8034     9.5125 </r>
       <r>    -1.0600     8.2385    10.0334 </r>
       <r>    -0.9967     7.4438    10.5041 </r>
       <r>    -0.9335     4.6830    10.8002 </r>
       <r>    -0.8703     2.7029    10.9711 </r>
       <r>    -0.8070     3.0558    11.1643 </r>
       <r>    -0.7438     4.2314    11.4319 </r>
       <r>    -0.6806     3.7115    11.6666 </r>
       <r>    -0.6173     1.9296    11.7886 </r>
       <r>    -0.5541     0.9961    11.8516 </r>
       <r>    -0.4909     1.0201    11.9161 </r>
       <r>    -0.4277     1.3206    11.9996 </r>
       <r>    -0.3644     2.1222    12.1338 </r>
       <r>    -0.3012     3.1746    12.3345 </r>
       <r>    -0.2380     3.6625    12.5661 </r>
       <r>    -0.1747     3.3029    12.7749 </r>
       <r>    -0.1115     2.2964    12.9201 </r>
       <r>    -0.0483     1.4104    13.0093 </r>
       <r>     0.0150     1.1314    13.0809 </r>
       <r>     0.0782     1.2334    13.1588 </r>
       <r>     0.1414     1.5786    13.2587 </r>
       <r>     0.2047     1.6667    13.3641 </r>
       <r>     0.2679     1.2935    13.4458 </r>
       <r>     0.3311     1.6084    13.5475 </r>
       <r>     0.3943     2.7532    13.7216 </r>
       <r>     0.4576     2.7877    13.8979 </r>
       <r>     0.5208     1.4075    13.9869 </r>
       <r>     0.5840     0.3588    14.0096 </r>
       <r>     0.6473     0.1365    14.0182 </r>
       <r>     0.7105     0.3900    14.0429 </r>
       <r>     0.7737     0.7837    14.0924 </r>
       <r>     0.8370     0.9014    14.1494 </r>
       <r>     0.9002     0.8803    14.2051 </r>
       <r>     0.9634     1.0041    14.2686 </r>
       <r>     1.0267     1.1157    14.3391 </r>
       <r>     1.0899     1.3863    14.4268 </r>
       <r>     1.1531     1.9309    14.5489 </r>
       <r>     1.2163     1.9866    14.6745 </r>
       <r>     1.2796     1.6962    14.7817 </r>
       <r>     1.3428     1.6561    14.8865 </r>
       <r>     1.4060     1.6964    14.9937 </r>
       <r>     1.4693     1.7336    15.1033 </r>
       <r>     1.5325     2.1657    15.2403 </r>
       <r>     1.5957     3.6681    15.4722 </r>
       <r>     1.6590     5.6280    15.8281 </r>
       <r>     1.7222     6.0888    16.2131 </r>
       <r>     1.7854     5.1736    16.5402 </r>
       <r>     1.8487     4.0705    16.7976 </r>
       <r>     1.9119     3.7209    17.0329 </r>
       <r>     1.9751     4.3576    17.3084 </r>
       <r>     2.0383     4.8190    17.6131 </r>
       <r>     2.1016     4.2278    17.8804 </r>
       <r>     2.1648     3.4697    18.0998 </r>
       <r>     2.2280     3.3866    18.3140 </r>
       <r>     2.2913     3.5467    18.5382 </r>
       <r>     2.3545     3.5806    18.7646 </r>
       <r>     2.4177     4.0741    19.0222 </r>
       <r>     2.4810     5.5155    19.3710 </r>
       <r>     2.5442     6.9082    19.8078 </r>
       <r>     2.6074     6.8407    20.2403 </r>
       <r>     2.6707     5.0136    20.5573 </r>
       <r>     2.7339     3.6264    20.7866 </r>
       <r>     2.7971     4.2428    21.0549 </r>
       <r>     2.8603     5.0908    21.3768 </r>
       <r>     2.9236     5.4736    21.7229 </r>
       <r>     2.9868     6.3041    22.1215 </r>
       <r>     3.0500     6.7125    22.5460 </r>
       <r>     3.1133     5.8440    22.9155 </r>
       <r>     3.1765     4.6960    23.2124 </r>
       <r>     3.2397     4.7643    23.5137 </r>
       <r>     3.3030     6.2017    23.9058 </r>
       <r>     3.3662     7.8255    24.4006 </r>
       <r>     3.4294     7.8284    24.8956 </r>
       <r>     3.4926     6.0471    25.2780 </r>
       <r>     3.5559     4.5130    25.5633 </r>
       <r>     3.6191     4.6278    25.8559 </r>
       <r>     3.6823     5.3803    26.1961 </r>
       <r>     3.7456     5.0826    26.5175 </r>
       <r>     3.8088     3.9476    26.7671 </r>
       <r>     3.8720     3.5925    26.9943 </r>
       <r>     3.9353     4.4434    27.2752 </r>
       <r>     3.9985     5.3104    27.6110 </r>
       <r>     4.0617     5.9616    27.9880 </r>
       <r>     4.1250     6.4916    28.3984 </r>
       <r>     4.1882     6.1101    28.7848 </r>
       <r>     4.2514     4.9079    29.0951 </r>
       <r>     4.3146     4.5104    29.3803 </r>
       <r>     4.3779     4.7610    29.6814 </r>
       <r>     4.4411     3.6654    29.9131 </r>
       <r>     4.5043     2.0909    30.0453 </r>
       <r>     4.5676     2.1135    30.1790 </r>
       <r>     4.6308     3.6205    30.4079 </r>
       <r>     4.6940     4.6833    30.7040 </r>
       <r>     4.7573     3.9669    30.9549 </r>
       <r>     4.8205     2.2789    31.0989 </r>
       <r>     4.8837     1.1457    31.1714 </r>
       <r>     4.9470     1.0965    31.2407 </r>
       <r>     5.0102     1.4187    31.3304 </r>
       <r>     5.0734     1.7393    31.4404 </r>
       <r>     5.1366     1.9840    31.5659 </r>
       <r>     5.1999     1.6858    31.6725 </r>
       <r>     5.2631     1.3711    31.7591 </r>
       <r>     5.3263     1.2652    31.8391 </r>
       <r>     5.3896     0.8272    31.8914 </r>
       <r>     5.4528     0.3467    31.9134 </r>
       <r>     5.5160     0.2755    31.9308 </r>
       <r>     5.5793     0.4167    31.9571 </r>
       <r>     5.6425     0.3906    31.9818 </r>
       <r>     5.7057     0.2074    31.9950 </r>
       <r>     5.7690     0.0661    31.9991 </r>
       <r>     5.8322     0.0124    31.9999 </r>
       <r>     5.8954     0.0012    32.0000 </r>
       <r>     5.9586     0.0001    32.0000 </r>
       <r>     6.0219     0.0002    32.0000 </r>
       <r>     6.0851     0.0034    32.0002 </r>
       <r>     6.1483     0.0287    32.0020 </r>
       <r>     6.2116     0.1223    32.0098 </r>
       <r>     6.2748     0.2848    32.0278 </r>
       <r>     6.3380     0.4139    32.0540 </r>
       <r>     6.4013     0.4243    32.0808 </r>
       <r>     6.4645     0.3700    32.1042 </r>
       <r>     6.5277     0.5110    32.1365 </r>
       <r>     6.5910     0.9717    32.1979 </r>
       <r>     6.6542     1.4344    32.2886 </r>
       <r>     6.7174     1.7025    32.3963 </r>
       <r>     6.7806     2.0627    32.5267 </r>
       <r>     6.8439     2.5309    32.6867 </r>
       <r>     6.9071     2.4104    32.8391 </r>
       <r>     6.9703     1.6756    32.9451 </r>
       <r>     7.0336     1.5131    33.0408 </r>
       <r>     7.0968     2.3640    33.1902 </r>
       <r>     7.1600     3.5082    33.4121 </r>
       <r>     7.2233     4.0854    33.6704 </r>
       <r>     7.2865     3.6730    33.9026 </r>
       <r>     7.3497     2.5363    34.0630 </r>
       <r>     7.4129     2.0620    34.1934 </r>
       <r>     7.4762     2.9265    34.3784 </r>
       <r>     7.5394     3.9248    34.6266 </r>
       <r>     7.6026     3.6075    34.8547 </r>
       <r>     7.6659     3.2238    35.0586 </r>
       <r>     7.7291     4.6879    35.3550 </r>
       <r>     7.7923     6.8487    35.7880 </r>
       <r>     7.8556     7.6583    36.2723 </r>
       <r>     7.9188     7.5749    36.7512 </r>
       <r>     7.9820     7.7327    37.2402 </r>
       <r>     8.0453     7.7057    37.7274 </r>
       <r>     8.1085     6.2254    38.1211 </r>
       <r>     8.1717     4.3029    38.3931 </r>
       <r>     8.2349     4.2819    38.6639 </r>
       <r>     8.2982     4.6721    38.9593 </r>
       <r>     8.3614     4.4077    39.2380 </r>
       <r>     8.4246     5.1514    39.5637 </r>
       <r>     8.4879     6.0889    39.9487 </r>
       <r>     8.5511     5.3820    40.2890 </r>
       <r>     8.6143     4.3780    40.5659 </r>
       <r>     8.6776     4.5456    40.8533 </r>
       <r>     8.7408     4.7088    41.1510 </r>
       <r>     8.8040     4.0239    41.4055 </r>
       <r>     8.8673     3.8929    41.6516 </r>
       <r>     8.9305     5.3444    41.9895 </r>
       <r>     8.9937     7.2482    42.4478 </r>
       <r>     9.0569     8.2817    42.9715 </r>
       <r>     9.1202     8.5862    43.5144 </r>
       <r>     9.1834     8.1392    44.0291 </r>
       <r>     9.2466     7.0315    44.4737 </r>
       <r>     9.3099     6.3749    44.8768 </r>
       <r>     9.3731     6.5481    45.2908 </r>
       <r>     9.4363     7.3399    45.7549 </r>
       <r>     9.4996     8.1902    46.2728 </r>
       <r>     9.5628     8.0554    46.7821 </r>
       <r>     9.6260     6.4932    47.1927 </r>
       <r>     9.6893     4.4881    47.4765 </r>
       <r>     9.7525     3.2994    47.6851 </r>
       <r>     9.8157     2.3627    47.8345 </r>
       <r>     9.8789     1.5349    47.9316 </r>
       <r>     9.9422     1.8588    48.0491 </r>
       <r>    10.0054     3.0964    48.2449 </r>
       <r>    10.0686     3.6105    48.4732 </r>
       <r>    10.1319     4.0394    48.7286 </r>
       <r>    10.1951     4.7223    49.0272 </r>
       <r>    10.2583     3.7630    49.2651 </r>
       <r>    10.3216     1.8061    49.3793 </r>
       <r>    10.3848     0.8515    49.4332 </r>
       <r>    10.4480     1.1368    49.5050 </r>
       <r>    10.5113     1.7516    49.6158 </r>
       <r>    10.5745     2.0141    49.7431 </r>
       <r>    10.6377     1.6058    49.8447 </r>
       <r>    10.7009     0.9319    49.9036 </r>
       <r>    10.7642     0.6670    49.9458 </r>
       <r>    10.8274     0.5337    49.9795 </r>
       <r>    10.8906     0.2556    49.9957 </r>
       <r>    10.9539     0.0608    49.9995 </r>
       <r>    11.0171     0.0070    50.0000 </r>
       <r>    11.0803     0.0004    50.0000 </r>
       <r>    11.1436     0.0000    50.0000 </r>
       <r>    11.2068     0.0000    50.0000 </r>
       <r>    11.2700     0.0000    50.0000 </r>
       <r>    11.3332     0.0000    50.0000 </r>
       <r>    11.3965     0.0000    50.0000 </r>
       <r>    11.4597     0.0000    50.0000 </r>
       <r>    11.5229     0.0000    50.0000 </r>
       <r>    11.5862     0.0000    50.0000 </r>
       <r>    11.6494     0.0000    50.0000 </r>
       <r>    11.7126     0.0000    50.0000 </r>
       <r>    11.7759     0.0000    50.0000 </r>
      </set>
     </set>
    </array>
   </total>
  </dos>
 </calculation>
 <structure name="finalpos" >
  <crystal>
   <varray name="basis" >
    <v>       5.46550991       0.00000000      -0.00000000 </v>
    <v>       0.00000000       5.46550991      -0.00000000 </v>
    <v>      -0.00000000      -0.00000000       5.46550991 </v>
   </varray>
   <i name="volume">    163.26461152 </i>
   <varray name="rec_basis" >
    <v>       0.18296554      -0.00000000       0.00000000 </v>
    <v>      -0.00000000       0.18296554       0.00000000 </v>
    <v>       0.00000000       0.00000000       0.18296554 </v>
   </varray>
  </crystal>
  <varray name="positions" >
   <v>       0.00000000      -0.00000000      -0.00000000 </v>
   <v>      -0.00000000       0.50000000       0.50000000 </v>
   <v>       0.50000000      -0.00000000       0.50000000 </v>
   <v>       0.50000000       0.50000000      -0.00000000 </v>
   <v>       0.25000000       0.25000000       0.25000000 </v>
   <v>       0.75000000       0.75000000       0.25000000 </v>
   <v>       0.75000000       0.25000000       0.75000000 </v>
   <v>       0.25000000       0.75000000       0.75000000 </v>
  </varray>
 </structure>
</modeling>
