diamond Si                              
   5.43100000000000     
     1.021589   -0.000000   -0.000000
    -0.000000    1.021589    0.000000
    -0.000000    0.000000    1.021589
   Si
     8
Direct
  0.000000  0.000000  0.000000
  0.000000  0.500000  0.500000
  0.500000  0.000000  0.500000
  0.500000  0.500000  0.000000
  0.250000  0.250000  0.250000
  0.750000  0.750000  0.250000
  0.750000  0.250000  0.750000
  0.250000  0.750000  0.750000
 
   56   56   56
 -31.325     -26.754     -14.049      4.0549      23.859      41.682      54.739      61.673      62.640      58.990    
  52.699      45.667      38.801      32.471      26.872      22.067      18.036      14.715      12.022      9.8681    
  8.1689      6.8448      5.8252      5.0501      4.4714      4.0528      3.7692      3.6047      3.5507      3.6047    
  3.7692      4.0528      4.4714      5.0501      5.8252      6.8448      8.1689      9.8681      12.022      14.715    
  18.036      22.067      26.872      32.471      38.801      45.667      52.699      58.990      62.640      61.673    
  54.739      41.682      23.859      4.0549     -14.049     -26.754     -26.754     -22.338     -10.074      7.3753    
  26.413      43.466      55.841      62.243      62.854      59.011      52.660      45.637      38.792      32.486    
  26.908      22.119      18.099      14.785      12.094      9.9406      8.2395      6.9126      5.8899      5.1117    
  4.5302      4.1095      3.8243      3.6589      3.6047      3.6589      3.8243      4.1095      4.5302      5.1117    
  5.8899      6.9126      8.2395      9.9406      12.094      14.785      18.099      22.119      26.908      32.486    
  38.792      45.637      52.660      59.011      62.854      62.243      55.841      43.466      26.413      7.3753    
 -10.074     -22.338     -14.049     -10.074     0.94227      16.543      33.421      48.309      58.778      63.707    
  63.343      58.996      52.507      45.524      38.749      32.519      27.008      22.271      18.286      14.993    
  12.311      10.158      8.4521      7.1175      6.0858      5.2987      4.7094      4.2823      3.9925      3.8243    
  3.7692      3.8243      3.9925      4.2823      4.7094      5.2987      6.0858      7.1175      8.4521      10.158    
  12.311      14.993      18.286      22.271      27.008      32.519      38.749      45.524      52.507      58.996    
  63.343      63.707      58.778      48.309      33.421      16.543     0.94227     -10.074      4.0549      7.3753    
  16.543      29.414      43.118      54.850      62.571      65.414      63.719      58.738      52.147      45.267    
  38.632      32.543      27.152      22.507      18.586      15.331      12.668      10.520      8.8093      7.4643    
  6.4195      5.6189      5.0170      4.5796      4.2823      4.1095      4.0528      4.1095      4.2823      4.5796    
  5.0170      5.6189      6.4195      7.4643      8.8093      10.520      12.668      15.331      18.586      22.507    
  27.152      32.543      38.632      45.267      52.147      58.738      63.719      65.414      62.571      54.850    
  43.118      29.414      16.543      7.3753      23.859      26.413      33.421      43.118      53.162      61.299    
  65.953      66.546      63.509      58.005      51.466      44.790      38.387      32.517      27.310      22.806    
  18.983      15.790      13.162      11.028      9.3169      7.9623      6.9029      6.0859      5.4682      5.0170    
  4.7094      4.5302      4.4714      4.5302      4.7094      5.0170      5.4682      6.0859      6.9029      7.9623    
  9.3169      11.028      13.162      15.790      18.983      22.806      27.310      32.517      38.387      44.790    
  51.466      58.005      63.509      66.546      65.953      61.299      53.162      43.118      33.421      26.413    
  41.682      43.466      48.309      54.850      61.299      65.978      67.778      66.402      62.346      56.647    
  50.363      44.023      37.964      32.403      27.452      23.142      19.460      16.361      13.790      11.686    
  9.9846      8.6263      7.5547      6.7211      6.0859      5.6189      5.2987      5.1117      5.0501      5.1117    
  5.2987      5.6189      6.0859      6.7211      7.5547      8.6263      9.9846      11.686      13.790      16.361    
  19.460      23.142      27.452      32.403      37.964      44.023      50.363      56.647      62.346      66.402    
  67.778      65.978      61.299      54.850      48.309      43.466      54.739      55.841      58.778      62.571    
  65.953      67.778      67.358      64.631      60.111      54.636      48.787      42.926      37.327      32.170    
  27.549      23.495      20.002      17.036      14.553      12.502      10.828      9.4780      8.4013      7.5547    
  6.9029      6.4195      6.0858      5.8899      5.8252      5.8899      6.0858      6.4195      6.9029      7.5547    
  8.4013      9.4780      10.828      12.502      14.553      17.036      20.002      23.495      27.549      32.170    
  37.327      42.926      48.787      54.636      60.111      64.631      67.358      67.778      65.953      62.571    
  58.778      55.841      61.673      62.243      63.707      65.414      66.546      66.402      64.631      61.329    
  56.967      52.000      46.749      41.497      36.466      31.800      27.583      23.849      20.598      17.812    
  15.457      13.492      11.871      10.547      9.4780      8.6263      7.9623      7.4643      7.1175      6.9126    
  6.8448      6.9126      7.1175      7.4643      7.9623      8.6263      9.4780      10.547      11.871      13.492    
  15.457      17.812      20.598      23.849      27.583      31.800      36.466      41.497      46.749      52.000    
  56.967      61.329      64.631      66.402      66.546      65.414      63.707      62.243      62.640      62.854    
  63.343      63.719      63.509      62.346      60.111      56.967      53.136      48.839      44.312      39.772    
  35.392      31.293      27.549      24.197      21.248      18.696      16.516      14.677      13.142      11.871    
  10.828      9.9846      9.3169      8.8093      8.4521      8.2395      8.1689      8.2395      8.4521      8.8093    
  9.3169      9.9846      10.828      11.871      13.142      14.677      16.516      18.696      21.248      24.197    
  27.549      31.293      35.392      39.772      44.312      48.839      53.136      56.967      60.111      62.346    
  63.509      63.719      63.343      62.854      58.990      59.011      58.996      58.738      58.005      56.647    
  54.636      52.000      48.839      45.308      41.578      37.811      34.140      30.664      27.452      24.544    
  21.959      19.699      17.750      16.086      14.677      13.492      12.502      11.686      11.028      10.520    
  10.158      9.9406      9.8681      9.9406      10.158      10.520      11.028      11.686      12.502      13.492    
  14.677      16.086      17.750      19.699      21.959      24.544      27.452      30.664      34.140      37.811    
  41.578      45.308      48.839      52.000      54.636      56.647      58.005      58.738      58.996      59.011    
  52.699      52.660      52.507      52.147      51.466      50.363      48.787      46.749      44.312      41.578    
  38.666      35.692      32.757      29.942      27.310      24.904      22.746      20.842      19.184      17.750    
  16.516      15.457      14.553      13.790      13.162      12.668      12.311      12.094      12.022      12.094    
  12.311      12.668      13.162      13.790      14.553      15.457      16.516      17.750      19.184      20.842    
  22.746      24.904      27.310      29.942      32.757      35.692      38.666      41.578      44.312      46.749    
  48.787      50.363      51.466      52.147      52.507      52.660      45.667      45.637      45.524      45.267    
  44.790      44.023      42.926      41.497      39.772      37.811      35.692      33.495      31.297      29.164    
  27.152      25.300      23.629      22.146      20.842      19.699      18.696      17.812      17.036      16.361    
  15.790      15.331      14.993      14.785      14.715      14.785      14.993      15.331      15.790      16.361    
  17.036      17.812      18.696      19.699      20.842      22.146      23.629      25.300      27.152      29.164    
  31.297      33.495      35.692      37.811      39.772      41.497      42.926      44.023      44.790      45.267    
  45.524      45.637      38.801      38.792      38.749      38.632      38.387      37.964      37.327      36.466    
  35.392      34.140      32.757      31.297      29.818      28.374      27.008      25.754      24.628      23.629    
  22.746      21.959      21.248      20.598      20.002      19.460      18.983      18.586      18.286      18.099    
  18.036      18.099      18.286      18.586      18.983      19.460      20.002      20.598      21.248      21.959    
  22.746      23.629      24.628      25.754      27.008      28.374      29.818      31.297      32.757      34.140    
  35.392      36.466      37.327      37.964      38.387      38.632      38.749      38.792      32.471      32.486    
  32.519      32.543      32.517      32.403      32.170      31.800      31.293      30.664      29.942      29.164    
  28.374      27.610      26.908      26.288      25.754      25.300      24.904      24.544      24.197      23.849    
  23.495      23.142      22.806      22.507      22.271      22.119      22.067      22.119      22.271      22.507    
  22.806      23.142      23.495      23.849      24.197      24.544      24.904      25.300      25.754      26.288    
  26.908      27.610      28.374      29.164      29.942      30.664      31.293      31.800      32.170      32.403    
  32.517      32.543      32.519      32.486      26.872      26.908      27.008      27.152      27.310      27.452    
  27.549      27.583      27.549      27.452      27.310      27.152      27.008      26.908      26.872      26.908    
  27.008      27.152      27.310      27.452      27.549      27.583      27.549      27.452      27.310      27.152    
  27.008      26.908      26.872      26.908      27.008      27.152      27.310      27.452      27.549      27.583    
  27.549      27.452      27.310      27.152      27.008      26.908      26.872      26.908      27.008      27.152    
  27.310      27.452      27.549      27.583      27.549      27.452      27.310      27.152      27.008      26.908    
  22.067      22.119      22.271      22.507      22.806      23.142      23.495      23.849      24.197      24.544    
  24.904      25.300      25.754      26.288      26.908      27.610      28.374      29.164      29.942      30.664    
  31.293      31.800      32.170      32.403      32.517      32.543      32.519      32.486      32.471      32.486    
  32.519      32.543      32.517      32.403      32.170      31.800      31.293      30.664      29.942      29.164    
  28.374      27.610      26.908      26.288      25.754      25.300      24.904      24.544      24.197      23.849    
  23.495      23.142      22.806      22.507      22.271      22.119      18.036      18.099      18.286      18.586    
  18.983      19.460      20.002      20.598      21.248      21.959      22.746      23.629      24.628      25.754    
  27.008      28.374      29.818      31.297      32.757      34.140      35.392      36.466      37.327      37.964    
  38.387      38.632      38.749      38.792      38.801      38.792      38.749      38.632      38.387      37.964    
  37.327      36.466      35.392      34.140      32.757      31.297      29.818      28.374      27.008      25.754    
  24.628      23.629      22.746      21.959      21.248      20.598      20.002      19.460      18.983      18.586    
  18.286      18.099      14.715      14.785      14.993      15.331      15.790      16.361      17.036      17.812    
  18.696      19.699      20.842      22.146      23.629      25.300      27.152      29.164      31.297      33.495    
  35.692      37.811      39.772      41.497      42.926      44.023      44.790      45.267      45.524      45.637    
  45.667      45.637      45.524      45.267      44.790      44.023      42.926      41.497      39.772      37.811    
  35.692      33.495      31.297      29.164      27.152      25.300      23.629      22.146      20.842      19.699    
  18.696      17.812      17.036      16.361      15.790      15.331      14.993      14.785      12.022      12.094    
  12.311      12.668      13.162      13.790      14.553      15.457      16.516      17.750      19.184      20.842    
  22.746      24.904      27.310      29.942      32.757      35.692      38.666      41.578      44.312      46.749    
  48.787      50.363      51.466      52.147      52.507      52.660      52.699      52.660      52.507      52.147    
  51.466      50.363      48.787      46.749      44.312      41.578      38.666      35.692      32.757      29.942    
  27.310      24.904      22.746      20.842      19.184      17.750      16.516      15.457      14.553      13.790    
  13.162      12.668      12.311      12.094      9.8681      9.9406      10.158      10.520      11.028      11.686    
  12.502      13.492      14.677      16.086      17.750      19.699      21.959      24.544      27.452      30.664    
  34.140      37.811      41.578      45.308      48.839      52.000      54.636      56.647      58.005      58.738    
  58.996      59.011      58.990      59.011      58.996      58.738      58.005      56.647      54.636      52.000    
  48.839      45.308      41.578      37.811      34.140      30.664      27.452      24.544      21.959      19.699    
  17.750      16.086      14.677      13.492      12.502      11.686      11.028      10.520      10.158      9.9406    
  8.1689      8.2395      8.4521      8.8093      9.3169      9.9846      10.828      11.871      13.142      14.677    
  16.516      18.696      21.248      24.197      27.549      31.293      35.392      39.772      44.312      48.839    
  53.136      56.967      60.111      62.346      63.509      63.719      63.343      62.854      62.640      62.854    
  63.343      63.719      63.509      62.346      60.111      56.967      53.136      48.839      44.312      39.772    
  35.392      31.293      27.549      24.197      21.248      18.696      16.516      14.677      13.142      11.871    
  10.828      9.9846      9.3169      8.8093      8.4521      8.2395      6.8448      6.9126      7.1175      7.4643    
  7.9623      8.6263      9.4780      10.547      11.871      13.492      15.457      17.812      20.598      23.849    
  27.583      31.800      36.466      41.497      46.749      52.000      56.967      61.329      64.631      66.402    
  66.546      65.414      63.707      62.243      61.673      62.243      63.707      65.414      66.546      66.402    
  64.631      61.329      56.967      52.000      46.749      41.497      36.466      31.800      27.583      23.849    
  20.598      17.812      15.457      13.492      11.871      10.547      9.4780      8.6263      7.9623      7.4643    
  7.1175      6.9126      5.8252      5.8899      6.0858      6.4195      6.9029      7.5547      8.4013      9.4780    
  10.828      12.502      14.553      17.036      20.002      23.495      27.549      32.170      37.327      42.926    
  48.787      54.636      60.111      64.631      67.358      67.778      65.953      62.571      58.778      55.841    
  54.739      55.841      58.778      62.571      65.953      67.778      67.358      64.631      60.111      54.636    
  48.787      42.926      37.327      32.170      27.549      23.495      20.002      17.036      14.553      12.502    
  10.828      9.4780      8.4013      7.5547      6.9029      6.4195      6.0858      5.8899      5.0501      5.1117    
  5.2987      5.6189      6.0859      6.7211      7.5547      8.6263      9.9846      11.686      13.790      16.361    
  19.460      23.142      27.452      32.403      37.964      44.023      50.363      56.647      62.346      66.402    
  67.778      65.978      61.299      54.850      48.309      43.466      41.682      43.466      48.309      54.850    
  61.299      65.978      67.778      66.402      62.346      56.647      50.363      44.023      37.964      32.403    
  27.452      23.142      19.460      16.361      13.790      11.686      9.9846      8.6263      7.5547      6.7211    
  6.0859      5.6189      5.2987      5.1117      4.4714      4.5302      4.7094      5.0170      5.4682      6.0859    
  6.9029      7.9623      9.3169      11.028      13.162      15.790      18.983      22.806      27.310      32.517    
  38.387      44.790      51.466      58.005      63.509      66.546      65.953      61.299      53.162      43.118    
  33.421      26.413      23.859      26.413      33.421      43.118      53.162      61.299      65.953      66.546    
  63.509      58.005      51.466      44.790      38.387      32.517      27.310      22.806      18.983      15.790    
  13.162      11.028      9.3169      7.9623      6.9029      6.0859      5.4682      5.0170      4.7094      4.5302    
  4.0528      4.1095      4.2823      4.5796      5.0170      5.6189      6.4195      7.4643      8.8093      10.520    
  12.668      15.331      18.586      22.507      27.152      32.543      38.632      45.267      52.147      58.738    
  63.719      65.414      62.571      54.850      43.118      29.414      16.543      7.3753      4.0549      7.3753    
  16.543      29.414      43.118      54.850      62.571      65.414      63.719      58.738      52.147      45.267    
  38.632      32.543      27.152      22.507      18.586      15.331      12.668      10.520      8.8093      7.4643    
  6.4195      5.6189      5.0170      4.5796      4.2823      4.1095      3.7692      3.8243      3.9925      4.2823    
  4.7094      5.2987      6.0858      7.1175      8.4521      10.158      12.311      14.993      18.286      22.271    
  27.008      32.519      38.749      45.524      52.507      58.996      63.343      63.707      58.778      48.309    
  33.421      16.543     0.94227     -10.074     -14.049     -10.074     0.94227      16.543      33.421      48.309    
  58.778      63.707      63.343      58.996      52.507      45.524      38.749      32.519      27.008      22.271    
  18.286      14.993      12.311      10.158      8.4521      7.1175      6.0858      5.2987      4.7094      4.2823    
  3.9925      3.8243      3.6047      3.6589      3.8243      4.1095      4.5302      5.1117      5.8899      6.9126    
  8.2395      9.9406      12.094      14.785      18.099      22.119      26.908      32.486      38.792      45.637    
  52.660      59.011      62.854      62.243      55.841      43.466      26.413      7.3753     -10.074     -22.338    
 -26.754     -22.338     -10.074      7.3753      26.413      43.466      55.841      62.243      62.854      59.011    
  52.660      45.637      38.792      32.486      26.908      22.119      18.099      14.785      12.094      9.9406    
  8.2395      6.9126      5.8899      5.1117      4.5302      4.1095      3.8243      3.6589      3.5507      3.6047    
  3.7692      4.0528      4.4714      5.0501      5.8252      6.8448      8.1689      9.8681      12.022      14.715    
  18.036      22.067      26.872      32.471      38.801      45.667      52.699      58.990      62.640      61.673    
  54.739      41.682      23.859      4.0549     -14.049     -26.754     -31.325     -26.754     -14.049      4.0549    
  23.859      41.682      54.739      61.673      62.640      58.990      52.699      45.667      38.801      32.471    
  26.872      22.067      18.036      14.715      12.022      9.8681      8.1689      6.8448      5.8252      5.0501    
  4.4714      4.0528      3.7692      3.6047      3.6047      3.6589      3.8243      4.1095      4.5302      5.1117    
  5.8899      6.9126      8.2395      9.9406      12.094      14.785      18.099      22.119      26.908      32.486    
  38.792      45.637      52.660      59.011      62.854      62.243      55.841      43.466      26.413      7.3753    
 -10.074     -22.338     -26.754     -22.338     -10.074      7.3753      26.413      43.466      55.841      62.243    
  62.854      59.011      52.660      45.637      38.792      32.486      26.908      22.119      18.099      14.785    
  12.094      9.9406      8.2395      6.9126      5.8899      5.1117      4.5302      4.1095      3.8243      3.6589    
  3.7692      3.8243      3.9925      4.2823      4.7094      5.2987      6.0858      7.1175      8.4521      10.158    
  12.311      14.993      18.286      22.271      27.008      32.519      38.749      45.524      52.507      58.996    
  63.343      63.707      58.778      48.309      33.421      16.543     0.94227     -10.074     -14.049     -10.074    
 0.94227      16.543      33.421      48.309      58.778      63.707      63.343      58.996      52.507      45.524    
  38.749      32.519      27.008      22.271      18.286      14.993      12.311      10.158      8.4521      7.1175    
  6.0858      5.2987      4.7094      4.2823      3.9925      3.8243      4.0528      4.1095      4.2823      4.5796    
  5.0170      5.6189      6.4195      7.4643      8.8093      10.520      12.668      15.331      18.586      22.507    
  27.152      32.543      38.632      45.267      52.147      58.738      63.719      65.414      62.571      54.850    
  43.118      29.414      16.543      7.3753      4.0549      7.3753      16.543      29.414      43.118      54.850    
  62.571      65.414      63.719      58.738      52.147      45.267      38.632      32.543      27.152      22.507    
  18.586      15.331      12.668      10.520      8.8093      7.4643      6.4195      5.6189      5.0170      4.5796    
  4.2823      4.1095      4.4714      4.5302      4.7094      5.0170      5.4682      6.0859      6.9029      7.9623    
  9.3169      11.028      13.162      15.790      18.983      22.806      27.310      32.517      38.387      44.790    
  51.466      58.005      63.509      66.546      65.953      61.299      53.162      43.118      33.421      26.413    
  23.859      26.413      33.421      43.118      53.162      61.299      65.953      66.546      63.509      58.005    
  51.466      44.790      38.387      32.517      27.310      22.806      18.983      15.790      13.162      11.028    
  9.3169      7.9623      6.9029      6.0859      5.4682      5.0170      4.7094      4.5302      5.0501      5.1117    
  5.2987      5.6189      6.0859      6.7211      7.5547      8.6263      9.9846      11.686      13.790      16.361    
  19.460      23.142      27.452      32.403      37.964      44.023      50.363      56.647      62.346      66.402    
  67.778      65.978      61.299      54.850      48.309      43.466      41.682      43.466      48.309      54.850    
  61.299      65.978      67.778      66.402      62.346      56.647      50.363      44.023      37.964      32.403    
  27.452      23.142      19.460      16.361      13.790      11.686      9.9846      8.6263      7.5547      6.7211    
  6.0859      5.6189      5.2987      5.1117      5.8252      5.8899      6.0858      6.4195      6.9029      7.5547    
  8.4013      9.4780      10.828      12.502      14.553      17.036      20.002      23.495      27.549      32.170    
  37.327      42.926      48.787      54.636      60.111      64.631      67.358      67.778      65.953      62.571    
  58.778      55.841      54.739      55.841      58.778      62.571      65.953      67.778      67.358      64.631    
  60.111      54.636      48.787      42.926      37.327      32.170      27.549      23.495      20.002      17.036    
  14.553      12.502      10.828      9.4780      8.4013      7.5547      6.9029      6.4195      6.0858      5.8899    
  6.8448      6.9126      7.1175      7.4643      7.9623      8.6263      9.4780      10.547      11.871      13.492    
  15.457      17.812      20.598      23.849      27.583      31.800      36.466      41.497      46.749      52.000    
  56.967      61.329      64.631      66.402      66.546      65.414      63.707      62.243      61.673      62.243    
  63.707      65.414      66.546      66.402      64.631      61.329      56.967      52.000      46.749      41.497    
  36.466      31.800      27.583      23.849      20.598      17.812      15.457      13.492      11.871      10.547    
  9.4780      8.6263      7.9623      7.4643      7.1175      6.9126      8.1689      8.2395      8.4521      8.8093    
  9.3169      9.9846      10.828      11.871      13.142      14.677      16.516      18.696      21.248      24.197    
  27.549      31.293      35.392      39.772      44.312      48.839      53.136      56.967      60.111      62.346    
  63.509      63.719      63.343      62.854      62.640      62.854      63.343      63.719      63.509      62.346    
  60.111      56.967      53.136      48.839      44.312      39.772      35.392      31.293      27.549      24.197    
  21.248      18.696      16.516      14.677      13.142      11.871      10.828      9.9846      9.3169      8.8093    
  8.4521      8.2395      9.8681      9.9406      10.158      10.520      11.028      11.686      12.502      13.492    
  14.677      16.086      17.750      19.699      21.959      24.544      27.452      30.664      34.140      37.811    
  41.578      45.308      48.839      52.000      54.636      56.647      58.005      58.738      58.996      59.011    
  58.990      59.011      58.996      58.738      58.005      56.647      54.636      52.000      48.839      45.308    
  41.578      37.811      34.140      30.664      27.452      24.544      21.959      19.699      17.750      16.086    
  14.677      13.492      12.502      11.686      11.028      10.520      10.158      9.9406      12.022      12.094    
  12.311      12.668      13.162      13.790      14.553      15.457      16.516      17.750      19.184      20.842    
  22.746      24.904      27.310      29.942      32.757      35.692      38.666      41.578      44.312      46.749    
  48.787      50.363      51.466      52.147      52.507      52.660      52.699      52.660      52.507      52.147    
  51.466      50.363      48.787      46.749      44.312      41.578      38.666      35.692      32.757      29.942    
  27.310      24.904      22.746      20.842      19.184      17.750      16.516      15.457      14.553      13.790    
  13.162      12.668      12.311      12.094      14.715      14.785      14.993      15.331      15.790      16.361    
  17.036      17.812      18.696      19.699      20.842      22.146      23.629      25.300      27.152      29.164    
  31.297      33.495      35.692      37.811      39.772      41.497      42.926      44.023      44.790      45.267    
  45.524      45.637      45.667      45.637      45.524      45.267      44.790      44.023      42.926      41.497    
  39.772      37.811      35.692      33.495      31.297      29.164      27.152      25.300      23.629      22.146    
  20.842      19.699      18.696      17.812      17.036      16.361      15.790      15.331      14.993      14.785    
  18.036      18.099      18.286      18.586      18.983      19.460      20.002      20.598      21.248      21.959    
  22.746      23.629      24.628      25.754      27.008      28.374      29.818      31.297      32.757      34.140    
  35.392      36.466      37.327      37.964      38.387      38.632      38.749      38.792      38.801      38.792    
  38.749      38.632      38.387      37.964      37.327      36.466      35.392      34.140      32.757      31.297    
  29.818      28.374      27.008      25.754      24.628      23.629      22.746      21.959      21.248      20.598    
  20.002      19.460      18.983      18.586      18.286      18.099      22.067      22.119      22.271      22.507    
  22.806      23.142      23.495      23.849      24.197      24.544      24.904      25.300      25.754      26.288    
  26.908      27.610      28.374      29.164      29.942      30.664      31.293      31.800      32.170      32.403    
  32.517      32.543      32.519      32.486      32.471      32.486      32.519      32.543      32.517      32.403    
  32.170      31.800      31.293      30.664      29.942      29.164      28.374      27.610      26.908      26.288    
  25.754      25.300      24.904      24.544      24.197      23.849      23.495      23.142      22.806      22.507    
  22.271      22.119      26.872      26.908      27.008      27.152      27.310      27.452      27.549      27.583    
  27.549      27.452      27.310      27.152      27.008      26.908      26.872      26.908      27.008      27.152    
  27.310      27.452      27.549      27.583      27.549      27.452      27.310      27.152      27.008      26.908    
  26.872      26.908      27.008      27.152      27.310      27.452      27.549      27.583      27.549      27.452    
  27.310      27.152      27.008      26.908      26.872      26.908      27.008      27.152      27.310      27.452    
  27.549      27.583      27.549      27.452      27.310      27.152      27.008      26.908      32.471      32.486    
  32.519      32.543      32.517      32.403      32.170      31.800      31.293      30.664      29.942      29.164    
  28.374      27.610      26.908      26.288      25.754      25.300      24.904      24.544      24.197      23.849    
  23.495      23.142      22.806      22.507      22.271      22.119      22.067      22.119      22.271      22.507    