diamond Si                              
   5.43100000000000     
     1.006257   -0.000000   -0.000000
    -0.000000    1.006257    0.000000
    -0.000000    0.000000    1.006257
   Si
     8
Direct
  0.000000  0.000000  0.000000
  0.000000  0.500000  0.500000
  0.500000  0.000000  0.500000
  0.500000  0.500000  0.000000
  0.250000  0.250000  0.250000
  0.750000  0.750000  0.250000
  0.750000  0.250000  0.750000
  0.250000  0.750000  0.750000
 
   56   56   56
 -.31688253679E+02 -.27000972460E+02 -.13985138155E+02 0.45241221762E+01 0.24703377884E+02
 0.42762878747E+02 0.55859787686E+02 0.62645074099E+02 0.63337746263E+02 0.59379829742E+02
 0.52836919712E+02 0.45638181985E+02 0.38656404974E+02 0.32258181357E+02 0.26628353615E+02
 0.21818863242E+02 0.17799611683E+02 0.14498581027E+02 0.11827542833E+02 0.96957682530E+01
 0.80163999018E+01 0.67095657841E+01 0.57045018114E+01 0.49412829342E+01 0.43719037575E+01
 0.39603530309E+01 0.36816247069E+01 0.35199714192E+01 0.34669610584E+01 0.35199714192E+01
 0.36816247069E+01 0.39603530309E+01 0.43719037575E+01 0.49412829342E+01 0.57045018114E+01
 0.67095657841E+01 0.80163999018E+01 0.96957682530E+01 0.11827542833E+02 0.14498581027E+02
 0.17799611683E+02 0.21818863242E+02 0.26628353615E+02 0.32258181357E+02 0.38656404974E+02
 0.45638181985E+02 0.52836919712E+02 0.59379829742E+02 0.63337746263E+02 0.62645074099E+02
 0.55859787686E+02 0.42762878747E+02 0.24703377884E+02 0.45241221762E+01 -.13985138155E+02
 -.27000972460E+02 -.27000972460E+02 -.22475736736E+02 -.99184919544E+01 0.79115507864E+01
 0.27297190394E+02 0.44561345701E+02 0.56957407531E+02 0.63199980958E+02 0.63532668351E+02
 0.59386125813E+02 0.52788624063E+02 0.45601685895E+02 0.38643199305E+02 0.32270454068E+02
 0.26663080279E+02 0.21870725269E+02 0.17862918976E+02 0.14568324699E+02 0.11899821256E+02
 0.97678312584E+01 0.80865047373E+01 0.67767718771E+01 0.57684707797E+01 0.50021071284E+01
 0.44299639477E+01 0.40162004837E+01 0.37358877856E+01 0.35732929058E+01 0.35199714192E+01
 0.35732929058E+01 0.37358877856E+01 0.40162004837E+01 0.44299639477E+01 0.50021071284E+01
 0.57684707797E+01 0.67767718771E+01 0.80865047373E+01 0.97678312584E+01 0.11899821256E+02
 0.14568324699E+02 0.17862918976E+02 0.21870725269E+02 0.26663080279E+02 0.32270454068E+02
 0.38643199305E+02 0.45601685895E+02 0.52788624063E+02 0.59386125813E+02 0.63532668351E+02
 0.63199980958E+02 0.56957407531E+02 0.44561345701E+02 0.27297190394E+02 0.79115507864E+01
 -.99184919544E+01 -.22475736736E+02 -.13985138155E+02 -.99184919544E+01 0.13418338147E+01
 0.17253776266E+02 0.34403531462E+02 0.49434965282E+02 0.59874346195E+02 0.64615037982E+02
 0.63967272434E+02 0.59325567307E+02 0.52608433202E+02 0.45469998600E+02 0.38588861270E+02
 0.32297103736E+02 0.26759960194E+02 0.22020993479E+02 0.18049075749E+02 0.14775134702E+02
 0.12115445165E+02 0.99838820302E+01 0.82975894805E+01 0.69798805173E+01 0.59623936737E+01
 0.51869400114E+01 0.46066968222E+01 0.41863747086E+01 0.39013208575E+01 0.37358877856E+01
 0.36816247069E+01 0.37358877856E+01 0.39013208575E+01 0.41863747086E+01 0.46066968222E+01
 0.51869400114E+01 0.59623936737E+01 0.69798805173E+01 0.82975894805E+01 0.99838820302E+01
 0.12115445165E+02 0.14775134702E+02 0.18049075749E+02 0.22020993479E+02 0.26759960194E+02
 0.32297103736E+02 0.38588861270E+02 0.45469998600E+02 0.52608433202E+02 0.59325567307E+02
 0.63967272434E+02 0.64615037982E+02 0.59874346195E+02 0.49434965282E+02 0.34403531462E+02
 0.17253776266E+02 0.13418338147E+01 -.99184919544E+01 0.45241221762E+01 0.79115507864E+01
 0.17253776266E+02 0.30337513091E+02 0.44206919729E+02 0.55987749225E+02 0.63612162166E+02
 0.66234134638E+02 0.64253252693E+02 0.58998057366E+02 0.52206576864E+02 0.45184582229E+02
 0.38454083378E+02 0.32310535086E+02 0.26898862749E+02 0.22254833091E+02 0.18347540037E+02
 0.15112296183E+02 0.12471212368E+02 0.10343872812E+02 0.86523003500E+01 0.73236921037E+01
 0.62926625442E+01 0.55032387237E+01 0.49101804286E+01 0.44792432037E+01 0.41863747086E+01
 0.40162004837E+01 0.39603530309E+01 0.40162004837E+01 0.41863747086E+01 0.44792432037E+01
 0.49101804286E+01 0.55032387237E+01 0.62926625442E+01 0.73236921037E+01 0.86523003500E+01
 0.10343872812E+02 0.12471212368E+02 0.15112296183E+02 0.18347540037E+02 0.22254833091E+02
 0.26898862749E+02 0.32310535086E+02 0.38454083378E+02 0.45184582229E+02 0.52206576864E+02
 0.58998057366E+02 0.64253252693E+02 0.66234134638E+02 0.63612162166E+02 0.55987749225E+02
 0.44206919729E+02 0.30337513091E+02 0.17253776266E+02 0.79115507864E+01 0.24703377884E+02
 0.27297190394E+02 0.34403531462E+02 0.44206919729E+02 0.54303049475E+02 0.62393253307E+02
 0.66887285914E+02 0.67235598159E+02 0.63924062675E+02 0.58179903322E+02 0.51471282733E+02
 0.44671275786E+02 0.38187539546E+02 0.32273338463E+02 0.27051532108E+02 0.22550937915E+02
 0.18743102133E+02 0.15570375069E+02 0.12963189677E+02 0.10848918561E+02 0.91561299013E+01
 0.78172537772E+01 0.67710071436E+01 0.59645928056E+01 0.53551636899E+01 0.49101804286E+01
 0.46066968222E+01 0.44299639477E+01 0.43719037575E+01 0.44299639477E+01 0.46066968222E+01
 0.49101804286E+01 0.53551636899E+01 0.59645928056E+01 0.67710071436E+01 0.78172537772E+01
 0.91561299013E+01 0.10848918561E+02 0.12963189677E+02 0.15570375069E+02 0.18743102133E+02
 0.22550937915E+02 0.27051532108E+02 0.32273338463E+02 0.38187539546E+02 0.44671275786E+02
 0.51471282733E+02 0.58179903322E+02 0.63924062675E+02 0.67235598159E+02 0.66887285914E+02
 0.62393253307E+02 0.54303049475E+02 0.44206919729E+02 0.34403531462E+02 0.27297190394E+02
 0.42762878747E+02 0.44561345701E+02 0.49434965282E+02 0.55987749225E+02 0.62393253307E+02
 0.66948815822E+02 0.68547850372E+02 0.66925313869E+02 0.62625179875E+02 0.56734474478E+02
 0.50308407177E+02 0.43865144448E+02 0.37741239036E+02 0.32147851906E+02 0.27187742115E+02
 0.22885727765E+02 0.19218953478E+02 0.16139606002E+02 0.13588658318E+02 0.11502941599E+02
 0.98188676230E+01 0.84752119465E+01 0.74158376197E+01 0.65921318575E+01 0.59645928056E+01
 0.55032387237E+01 0.51869400114E+01 0.50021071284E+01 0.49412829342E+01 0.50021071284E+01
 0.51869400114E+01 0.55032387237E+01 0.59645928056E+01 0.65921318575E+01 0.74158376197E+01
 0.84752119465E+01 0.98188676230E+01 0.11502941599E+02 0.13588658318E+02 0.16139606002E+02
 0.19218953478E+02 0.22885727765E+02 0.27187742115E+02 0.32147851906E+02 0.37741239036E+02
 0.43865144448E+02 0.50308407177E+02 0.56734474478E+02 0.62625179875E+02 0.66925313869E+02
 0.68547850372E+02 0.66948815822E+02 0.62393253307E+02 0.55987749225E+02 0.49434965282E+02
 0.44561345701E+02 0.55859787686E+02 0.56957407531E+02 0.59874346195E+02 0.63612162166E+02
 0.66887285914E+02 0.68547850372E+02 0.67919817438E+02 0.64971067502E+02 0.60257411686E+02
 0.54636034621E+02 0.48672273505E+02 0.42730249104E+02 0.37083317641E+02 0.31904675276E+02
 0.27281264480E+02 0.23237802344E+02 0.19760188849E+02 0.16812725619E+02 0.14348425101E+02
 0.12314564468E+02 0.10656179692E+02 0.93191939704E+01 0.82535423679E+01 0.74158376197E+01
 0.67710071436E+01 0.62926625442E+01 0.59623936737E+01 0.57684707797E+01 0.57045018114E+01
 0.57684707797E+01 0.59623936737E+01 0.62926625442E+01 0.67710071436E+01 0.74158376197E+01
 0.82535423679E+01 0.93191939704E+01 0.10656179692E+02 0.12314564468E+02 0.14348425101E+02
 0.16812725619E+02 0.19760188849E+02 0.23237802344E+02 0.27281264480E+02 0.31904675276E+02
 0.37083317641E+02 0.42730249104E+02 0.48672273505E+02 0.54636034621E+02 0.60257411686E+02
 0.64971067502E+02 0.67919817438E+02 0.68547850372E+02 0.66887285914E+02 0.63612162166E+02
 0.59874346195E+02 0.56957407531E+02 0.62645074099E+02 0.63199980958E+02 0.64615037982E+02
 0.66234134638E+02 0.67235598159E+02 0.66925313869E+02 0.64971067502E+02 0.61497479459E+02
 0.56997095934E+02 0.51916069273E+02 0.46578025028E+02 0.41268605300E+02 0.36204870202E+02
 0.31528174273E+02 0.27314496892E+02 0.23591901305E+02 0.20357157354E+02 0.17587714687E+02
 0.15248966003E+02 0.13298711207E+02 0.11690773604E+02 0.10378672907E+02 0.93191939704E+01
 0.84752119465E+01 0.78172537772E+01 0.73236921037E+01 0.69798805173E+01 0.67767718771E+01
 0.67095657841E+01 0.67767718771E+01 0.69798805173E+01 0.73236921037E+01 0.78172537772E+01
 0.84752119465E+01 0.93191939704E+01 0.10378672907E+02 0.11690773604E+02 0.13298711207E+02
 0.15248966003E+02 0.17587714687E+02 0.20357157354E+02 0.23591901305E+02 0.27314496892E+02
 0.31528174273E+02 0.36204870202E+02 0.41268605300E+02 0.46578025028E+02 0.51916069273E+02
 0.56997095934E+02 0.61497479459E+02 0.64971067502E+02 0.66925313869E+02 0.67235598159E+02
 0.66234134638E+02 0.64615037982E+02 0.63199980958E+02 0.63337746263E+02 0.63532668351E+02
 0.63967272434E+02 0.64253252693E+02 0.63924062675E+02 0.62625179875E+02 0.60257411686E+02
 0.56997095934E+02 0.53064304710E+02 0.48683073623E+02 0.44095156546E+02 0.39517839043E+02
 0.35120361132E+02 0.31018524804E+02 0.27281264480E+02 0.23941808205E+02 0.21008022299E+02
 0.18469761828E+02 0.16303710680E+02 0.14477258641E+02 0.12952544307E+02 0.11690773604E+02
 0.10656179692E+02 0.98188676230E+01 0.91561299013E+01 0.86523003500E+01 0.82975894805E+01
 0.80865047373E+01 0.80163999018E+01 0.80865047373E+01 0.82975894805E+01 0.86523003500E+01
 0.91561299013E+01 0.98188676230E+01 0.10656179692E+02 0.11690773604E+02 0.12952544307E+02
 0.14477258641E+02 0.16303710680E+02 0.18469761828E+02 0.21008022299E+02 0.23941808205E+02
 0.27281264480E+02 0.31018524804E+02 0.35120361132E+02 0.39517839043E+02 0.44095156546E+02
 0.48683073623E+02 0.53064304710E+02 0.56997095934E+02 0.60257411686E+02 0.62625179875E+02
 0.63924062675E+02 0.64253252693E+02 0.63967272434E+02 0.63532668351E+02 0.59379829742E+02
 0.59386125813E+02 0.59325567307E+02 0.58998057366E+02 0.58179903322E+02 0.56734474478E+02
 0.54636034621E+02 0.51916069273E+02 0.48683073623E+02 0.45096034427E+02 0.41328748674E+02
 0.37541218289E+02 0.33863451634E+02 0.30390969959E+02 0.27187742115E+02 0.24291722004E+02
 0.21719845163E+02 0.19471710345E+02 0.17532779523E+02 0.15878159421E+02 0.14477258641E+02
 0.13298711207E+02 0.12314564468E+02 0.11502941599E+02 0.10848918561E+02 0.10343872812E+02
 0.99838820302E+01 0.97678312584E+01 0.96957682530E+01 0.97678312584E+01 0.99838820302E+01
 0.10343872812E+02 0.10848918561E+02 0.11502941599E+02 0.12314564468E+02 0.13298711207E+02
 0.14477258641E+02 0.15878159421E+02 0.17532779523E+02 0.19471710345E+02 0.21719845163E+02
 0.24291722004E+02 0.27187742115E+02 0.30390969959E+02 0.33863451634E+02 0.37541218289E+02
 0.41328748674E+02 0.45096034427E+02 0.48683073623E+02 0.51916069273E+02 0.54636034621E+02
 0.56734474478E+02 0.58179903322E+02 0.58998057366E+02 0.59325567307E+02 0.59386125813E+02
 0.52836919712E+02 0.52788624063E+02 0.52608433202E+02 0.52206576864E+02 0.51471282733E+02
 0.50308407177E+02 0.48672273505E+02 0.46578025028E+02 0.44095156546E+02 0.41328748674E+02
 0.38397420078E+02 0.35415240244E+02 0.32480860672E+02 0.29673278165E+02 0.27051532108E+02
 0.24655651304E+02 0.22507586385E+02 0.20612412279E+02 0.18960733703E+02 0.17532779523E+02
 0.16303710680E+02 0.15248966003E+02 0.14348425101E+02 0.13588658318E+02 0.12963189677E+02
 0.12471212368E+02 0.12115445165E+02 0.11899821256E+02 0.11827542833E+02 0.11899821256E+02
 0.12115445165E+02 0.12471212368E+02 0.12963189677E+02 0.13588658318E+02 0.14348425101E+02
 0.15248966003E+02 0.16303710680E+02 0.17532779523E+02 0.18960733703E+02 0.20612412279E+02
 0.22507586385E+02 0.24655651304E+02 0.27051532108E+02 0.29673278165E+02 0.32480860672E+02
 0.35415240244E+02 0.38397420078E+02 0.41328748674E+02 0.44095156546E+02 0.46578025028E+02
 0.48672273505E+02 0.50308407177E+02 0.51471282733E+02 0.52206576864E+02 0.52608433202E+02
 0.52788624063E+02 0.45638181985E+02 0.45601685895E+02 0.45469998600E+02 0.45184582229E+02
 0.44671275786E+02 0.43865144448E+02 0.42730249104E+02 0.41268605300E+02 0.39517839043E+02
 0.37541218289E+02 0.35415240244E+02 0.33218882211E+02 0.31026235132E+02 0.28902059110E+02
 0.26898862749E+02 0.25054546067E+02 0.23390754933E+02 0.21912871131E+02 0.20612412279E+02
 0.19471710345E+02 0.18469761828E+02 0.17587714687E+02 0.16812725619E+02 0.16139606002E+02
 0.15570375069E+02 0.15112296183E+02 0.14775134702E+02 0.14568324699E+02 0.14498581027E+02
 0.14568324699E+02 0.14775134702E+02 0.15112296183E+02 0.15570375069E+02 0.16139606002E+02
 0.16812725619E+02 0.17587714687E+02 0.18469761828E+02 0.19471710345E+02 0.20612412279E+02
 0.21912871131E+02 0.23390754933E+02 0.25054546067E+02 0.26898862749E+02 0.28902059110E+02
 0.31026235132E+02 0.33218882211E+02 0.35415240244E+02 0.37541218289E+02 0.39517839043E+02
 0.41268605300E+02 0.42730249104E+02 0.43865144448E+02 0.44671275786E+02 0.45184582229E+02
 0.45469998600E+02 0.45601685895E+02 0.38656404974E+02 0.38643199305E+02 0.38588861270E+02
 0.38454083378E+02 0.38187539546E+02 0.37741239036E+02 0.37083317641E+02 0.36204870202E+02
 0.35120361132E+02 0.33863451634E+02 0.32480860672E+02 0.31026235132E+02 0.29554739695E+02
 0.28118126584E+02 0.26759960194E+02 0.25511326311E+02 0.24388077628E+02 0.23390754933E+02
 0.22507586385E+02 0.21719845163E+02 0.21008022299E+02 0.20357157354E+02 0.19760188849E+02
 0.19218953478E+02 0.18743102133E+02 0.18347540037E+02 0.18049075749E+02 0.17862918976E+02
 0.17799611683E+02 0.17862918976E+02 0.18049075749E+02 0.18347540037E+02 0.18743102133E+02
 0.19218953478E+02 0.19760188849E+02 0.20357157354E+02 0.21008022299E+02 0.21719845163E+02
 0.22507586385E+02 0.23390754933E+02 0.24388077628E+02 0.25511326311E+02 0.26759960194E+02
 0.28118126584E+02 0.29554739695E+02 0.31026235132E+02 0.32480860672E+02 0.33863451634E+02
 0.35120361132E+02 0.36204870202E+02 0.37083317641E+02 0.37741239036E+02 0.38187539546E+02
 0.38454083378E+02 0.38588861270E+02 0.38643199305E+02 0.32258181357E+02 0.32270454068E+02
 0.32297103736E+02 0.32310535086E+02 0.32273338463E+02 0.32147851906E+02 0.31904675276E+02
 0.31528174273E+02 0.31018524804E+02 0.30390969959E+02 0.29673278165E+02 0.28902059110E+02
 0.28118126584E+02 0.27361000798E+02 0.26663080279E+02 0.26044668464E+02 0.25511326311E+02
 0.25054546067E+02 0.24655651304E+02 0.24291722004E+02 0.23941808205E+02 0.23591901305E+02
 0.23237802344E+02 0.22885727765E+02 0.22550937915E+02 0.22254833091E+02 0.22020993479E+02
 0.21870725269E+02 0.21818863242E+02 0.21870725269E+02 0.22020993479E+02 0.22254833091E+02
 0.22550937915E+02 0.22885727765E+02 0.23237802344E+02 0.23591901305E+02 0.23941808205E+02
 0.24291722004E+02 0.24655651304E+02 0.25054546067E+02 0.25511326311E+02 0.26044668464E+02
 0.26663080279E+02 0.27361000798E+02 0.28118126584E+02 0.28902059110E+02 0.29673278165E+02
 0.30390969959E+02 0.31018524804E+02 0.31528174273E+02 0.31904675276E+02 0.32147851906E+02
 0.32273338463E+02 0.32310535086E+02 0.32297103736E+02 0.32270454068E+02 0.26628353615E+02
 0.26663080279E+02 0.26759960194E+02 0.26898862749E+02 0.27051532108E+02 0.27187742115E+02
 0.27281264480E+02 0.27314496892E+02 0.27281264480E+02 0.27187742115E+02 0.27051532108E+02
 0.26898862749E+02 0.26759960194E+02 0.26663080279E+02 0.26628353615E+02 0.26663080279E+02
 0.26759960194E+02 0.26898862749E+02 0.27051532108E+02 0.27187742115E+02 0.27281264480E+02
 0.27314496892E+02 0.27281264480E+02 0.27187742115E+02 0.27051532108E+02 0.26898862749E+02
 0.26759960194E+02 0.26663080279E+02 0.26628353615E+02 0.26663080279E+02 0.26759960194E+02
 0.26898862749E+02 0.27051532108E+02 0.27187742115E+02 0.27281264480E+02 0.27314496892E+02
 0.27281264480E+02 0.27187742115E+02 0.27051532108E+02 0.26898862749E+02 0.26759960194E+02
 0.26663080279E+02 0.26628353615E+02 0.26663080279E+02 0.26759960194E+02 0.26898862749E+02
 0.27051532108E+02 0.27187742115E+02 0.27281264480E+02 0.27314496892E+02 0.27281264480E+02
 0.27187742115E+02 0.27051532108E+02 0.26898862749E+02 0.26759960194E+02 0.26663080279E+02
 0.21818863242E+02 0.21870725269E+02 0.22020993479E+02 0.22254833091E+02 0.22550937915E+02
 0.22885727765E+02 0.23237802344E+02 0.23591901305E+02 0.23941808205E+02 0.24291722004E+02
 0.24655651304E+02 0.25054546067E+02 0.25511326311E+02 0.26044668464E+02 0.26663080279E+02
 0.27361000798E+02 0.28118126584E+02 0.28902059110E+02 0.29673278165E+02 0.30390969959E+02
 0.31018524804E+02 0.31528174273E+02 0.31904675276E+02 0.32147851906E+02 0.32273338463E+02
 0.32310535086E+02 0.32297103736E+02 0.32270454068E+02 0.32258181357E+02 0.32270454068E+02
 0.32297103736E+02 0.32310535086E+02 0.32273338463E+02 0.32147851906E+02 0.31904675276E+02
 0.31528174273E+02 0.31018524804E+02 0.30390969959E+02 0.29673278165E+02 0.28902059110E+02
 0.28118126584E+02 0.27361000798E+02 0.26663080279E+02 0.26044668464E+02 0.25511326311E+02
 0.25054546067E+02 0.24655651304E+02 0.24291722004E+02 0.23941808205E+02 0.23591901305E+02
 0.23237802344E+02 0.22885727765E+02 0.22550937915E+02 0.22254833091E+02 0.22020993479E+02
 0.21870725269E+02 0.17799611683E+02 0.17862918976E+02 0.18049075749E+02 0.18347540037E+02
 0.18743102133E+02 0.19218953478E+02 0.19760188849E+02 0.20357157354E+02 0.21008022299E+02
 0.21719845163E+02 0.22507586385E+02 0.23390754933E+02 0.24388077628E+02 0.25511326311E+02
 0.26759960194E+02 0.28118126584E+02 0.29554739695E+02 0.31026235132E+02 0.32480860672E+02
 0.33863451634E+02 0.35120361132E+02 0.36204870202E+02 0.37083317641E+02 0.37741239036E+02
 0.38187539546E+02 0.38454083378E+02 0.38588861270E+02 0.38643199305E+02 0.38656404974E+02
 0.38643199305E+02 0.38588861270E+02 0.38454083378E+02 0.38187539546E+02 0.37741239036E+02
 0.37083317641E+02 0.36204870202E+02 0.35120361132E+02 0.33863451634E+02 0.32480860672E+02
 0.31026235132E+02 0.29554739695E+02 0.28118126584E+02 0.26759960194E+02 0.25511326311E+02
 0.24388077628E+02 0.23390754933E+02 0.22507586385E+02 0.21719845163E+02 0.21008022299E+02
 0.20357157354E+02 0.19760188849E+02 0.19218953478E+02 0.18743102133E+02 0.18347540037E+02
 0.18049075749E+02 0.17862918976E+02 0.14498581027E+02 0.14568324699E+02 0.14775134702E+02
 0.15112296183E+02 0.15570375069E+02 0.16139606002E+02 0.16812725619E+02 0.17587714687E+02
 0.18469761828E+02 0.19471710345E+02 0.20612412279E+02 0.21912871131E+02 0.23390754933E+02
 0.25054546067E+02 0.26898862749E+02 0.28902059110E+02 0.31026235132E+02 0.33218882211E+02
 0.35415240244E+02 0.37541218289E+02 0.39517839043E+02 0.41268605300E+02 0.42730249104E+02
 0.43865144448E+02 0.44671275786E+02 0.45184582229E+02 0.45469998600E+02 0.45601685895E+02
 0.45638181985E+02 0.45601685895E+02 0.45469998600E+02 0.45184582229E+02 0.44671275786E+02
 0.43865144448E+02 0.42730249104E+02 0.41268605300E+02 0.39517839043E+02 0.37541218289E+02
 0.35415240244E+02 0.33218882211E+02 0.31026235132E+02 0.28902059110E+02 0.26898862749E+02
 0.25054546067E+02 0.23390754933E+02 0.21912871131E+02 0.20612412279E+02 0.19471710345E+02
 0.18469761828E+02 0.17587714687E+02 0.16812725619E+02 0.16139606002E+02 0.15570375069E+02
 0.15112296183E+02 0.14775134702E+02 0.14568324699E+02 0.11827542833E+02 0.11899821256E+02
 0.12115445165E+02 0.12471212368E+02 0.12963189677E+02 0.13588658318E+02 0.14348425101E+02
 0.15248966003E+02 0.16303710680E+02 0.17532779523E+02 0.18960733703E+02 0.20612412279E+02
 0.22507586385E+02 0.24655651304E+02 0.27051532108E+02 0.29673278165E+02 0.32480860672E+02
 0.35415240244E+02 0.38397420078E+02 0.41328748674E+02 0.44095156546E+02 0.46578025028E+02
 0.48672273505E+02 0.50308407177E+02 0.51471282733E+02 0.52206576864E+02 0.52608433202E+02
 0.52788624063E+02 0.52836919712E+02 0.52788624063E+02 0.52608433202E+02 0.52206576864E+02
 0.51471282733E+02 0.50308407177E+02 0.48672273505E+02 0.46578025028E+02 0.44095156546E+02
 0.41328748674E+02 0.38397420078E+02 0.35415240244E+02 0.32480860672E+02 0.29673278165E+02
 0.27051532108E+02 0.24655651304E+02 0.22507586385E+02 0.20612412279E+02 0.18960733703E+02
 0.17532779523E+02 0.16303710680E+02 0.15248966003E+02 0.14348425101E+02 0.13588658318E+02
 0.12963189677E+02 0.12471212368E+02 0.12115445165E+02 0.11899821256E+02 0.96957682530E+01
 0.97678312584E+01 0.99838820302E+01 0.10343872812E+02 0.10848918561E+02 0.11502941599E+02
 0.12314564468E+02 0.13298711207E+02 0.14477258641E+02 0.15878159421E+02 0.17532779523E+02
 0.19471710345E+02 0.21719845163E+02 0.24291722004E+02 0.27187742115E+02 0.30390969959E+02
 0.33863451634E+02 0.37541218289E+02 0.41328748674E+02 0.45096034427E+02 0.48683073623E+02
 0.51916069273E+02 0.54636034621E+02 0.56734474478E+02 0.58179903322E+02 0.58998057366E+02
 0.59325567307E+02 0.59386125813E+02 0.59379829742E+02 0.59386125813E+02 0.59325567307E+02
 0.58998057366E+02 0.58179903322E+02 0.56734474478E+02 0.54636034621E+02 0.51916069273E+02
 0.48683073623E+02 0.45096034427E+02 0.41328748674E+02 0.37541218289E+02 0.33863451634E+02
 0.30390969959E+02 0.27187742115E+02 0.24291722004E+02 0.21719845163E+02 0.19471710345E+02
 0.17532779523E+02 0.15878159421E+02 0.14477258641E+02 0.13298711207E+02 0.12314564468E+02
 0.11502941599E+02 0.10848918561E+02 0.10343872812E+02 0.99838820302E+01 0.97678312584E+01
 0.80163999018E+01 0.80865047373E+01 0.82975894805E+01 0.86523003500E+01 0.91561299013E+01
 0.98188676230E+01 0.10656179692E+02 0.11690773604E+02 0.12952544307E+02 0.14477258641E+02
 0.16303710680E+02 0.18469761828E+02 0.21008022299E+02 0.23941808205E+02 0.27281264480E+02
 0.31018524804E+02 0.35120361132E+02 0.39517839043E+02 0.44095156546E+02 0.48683073623E+02
 0.53064304710E+02 0.56997095934E+02 0.60257411686E+02 0.62625179875E+02 0.63924062675E+02
 0.64253252693E+02 0.63967272434E+02 0.63532668351E+02 0.63337746263E+02 0.63532668351E+02
 0.63967272434E+02 0.64253252693E+02 0.63924062675E+02 0.62625179875E+02 0.60257411686E+02
 0.56997095934E+02 0.53064304710E+02 0.48683073623E+02 0.44095156546E+02 0.39517839043E+02
 0.35120361132E+02 0.31018524804E+02 0.27281264480E+02 0.23941808205E+02 0.21008022299E+02
 0.18469761828E+02 0.16303710680E+02 0.14477258641E+02 0.12952544307E+02 0.11690773604E+02
 0.10656179692E+02 0.98188676230E+01 0.91561299013E+01 0.86523003500E+01 0.82975894805E+01
 0.80865047373E+01 0.67095657841E+01 0.67767718771E+01 0.69798805173E+01 0.73236921037E+01
 0.78172537772E+01 0.84752119465E+01 0.93191939704E+01 0.10378672907E+02 0.11690773604E+02
 0.13298711207E+02 0.15248966003E+02 0.17587714687E+02 0.20357157354E+02 0.23591901305E+02
 0.27314496892E+02 0.31528174273E+02 0.36204870202E+02 0.41268605300E+02 0.46578025028E+02
 0.51916069273E+02 0.56997095934E+02 0.61497479459E+02 0.64971067502E+02 0.66925313869E+02
 0.67235598159E+02 0.66234134638E+02 0.64615037982E+02 0.63199980958E+02 0.62645074099E+02
 0.63199980958E+02 0.64615037982E+02 0.66234134638E+02 0.67235598159E+02 0.66925313869E+02
 0.64971067502E+02 0.61497479459E+02 0.56997095934E+02 0.51916069273E+02 0.46578025028E+02
 0.41268605300E+02 0.36204870202E+02 0.31528174273E+02 0.27314496892E+02 0.23591901305E+02
 0.20357157354E+02 0.17587714687E+02 0.15248966003E+02 0.13298711207E+02 0.11690773604E+02
 0.10378672907E+02 0.93191939704E+01 0.84752119465E+01 0.78172537772E+01 0.73236921037E+01
 0.69798805173E+01 0.67767718771E+01 0.57045018114E+01 0.57684707797E+01 0.59623936737E+01
 0.62926625442E+01 0.67710071436E+01 0.74158376197E+01 0.82535423679E+01 0.93191939704E+01
 0.10656179692E+02 0.12314564468E+02 0.14348425101E+02 0.16812725619E+02 0.19760188849E+02
 0.23237802344E+02 0.27281264480E+02 0.31904675276E+02 0.37083317641E+02 0.42730249104E+02
 0.48672273505E+02 0.54636034621E+02 0.60257411686E+02 0.64971067502E+02 0.67919817438E+02
 0.68547850372E+02 0.66887285914E+02 0.63612162166E+02 0.59874346195E+02 0.56957407531E+02
 0.55859787686E+02 0.56957407531E+02 0.59874346195E+02 0.63612162166E+02 0.66887285914E+02
 0.68547850372E+02 0.67919817438E+02 0.64971067502E+02 0.60257411686E+02 0.54636034621E+02
 0.48672273505E+02 0.42730249104E+02 0.37083317641E+02 0.31904675276E+02 0.27281264480E+02
 0.23237802344E+02 0.19760188849E+02 0.16812725619E+02 0.14348425101E+02 0.12314564468E+02
 0.10656179692E+02 0.93191939704E+01 0.82535423679E+01 0.74158376197E+01 0.67710071436E+01
 0.62926625442E+01 0.59623936737E+01 0.57684707797E+01 0.49412829342E+01 0.50021071284E+01
 0.51869400114E+01 0.55032387237E+01 0.59645928056E+01 0.65921318575E+01 0.74158376197E+01
 0.84752119465E+01 0.98188676230E+01 0.11502941599E+02 0.13588658318E+02 0.16139606002E+02
 0.19218953478E+02 0.22885727765E+02 0.27187742115E+02 0.32147851906E+02 0.37741239036E+02
 0.43865144448E+02 0.50308407177E+02 0.56734474478E+02 0.62625179875E+02 0.66925313869E+02
 0.68547850372E+02 0.66948815822E+02 0.62393253307E+02 0.55987749225E+02 0.49434965282E+02
 0.44561345701E+02 0.42762878747E+02 0.44561345701E+02 0.49434965282E+02 0.55987749225E+02
 0.62393253307E+02 0.66948815822E+02 0.68547850372E+02 0.66925313869E+02 0.62625179875E+02
 0.56734474478E+02 0.50308407177E+02 0.43865144448E+02 0.37741239036E+02 0.32147851906E+02
 0.27187742115E+02 0.22885727765E+02 0.19218953478E+02 0.16139606002E+02 0.13588658318E+02
 0.11502941599E+02 0.98188676230E+01 0.84752119465E+01 0.74158376197E+01 0.65921318575E+01
 0.59645928056E+01 0.55032387237E+01 0.51869400114E+01 0.50021071284E+01 0.43719037575E+01
 0.44299639477E+01 0.46066968222E+01 0.49101804286E+01 0.53551636899E+01 0.59645928056E+01
 0.67710071436E+01 0.78172537772E+01 0.91561299013E+01 0.10848918561E+02 0.12963189677E+02
 0.15570375069E+02 0.18743102133E+02 0.22550937915E+02 0.27051532108E+02 0.32273338463E+02
 0.38187539546E+02 0.44671275786E+02 0.51471282733E+02 0.58179903322E+02 0.63924062675E+02
 0.67235598159E+02 0.66887285914E+02 0.62393253307E+02 0.54303049475E+02 0.44206919729E+02
 0.34403531462E+02 0.27297190394E+02 0.24703377884E+02 0.27297190394E+02 0.34403531462E+02
 0.44206919729E+02 0.54303049475E+02 0.62393253307E+02 0.66887285914E+02 0.67235598159E+02
 0.63924062675E+02 0.58179903322E+02 0.51471282733E+02 0.44671275786E+02 0.38187539546E+02
 0.32273338463E+02 0.27051532108E+02 0.22550937915E+02 0.18743102133E+02 0.15570375069E+02
 0.12963189677E+02 0.10848918561E+02 0.91561299013E+01 0.78172537772E+01 0.67710071436E+01
 0.59645928056E+01 0.53551636899E+01 0.49101804286E+01 0.46066968222E+01 0.44299639477E+01
 0.39603530309E+01 0.40162004837E+01 0.41863747086E+01 0.44792432037E+01 0.49101804286E+01
 0.55032387237E+01 0.62926625442E+01 0.73236921037E+01 0.86523003500E+01 0.10343872812E+02
 0.12471212368E+02 0.15112296183E+02 0.18347540037E+02 0.22254833091E+02 0.26898862749E+02
 0.32310535086E+02 0.38454083378E+02 0.45184582229E+02 0.52206576864E+02 0.58998057366E+02
 0.64253252693E+02 0.66234134638E+02 0.63612162166E+02 0.55987749225E+02 0.44206919729E+02
 0.30337513091E+02 0.17253776266E+02 0.79115507864E+01 0.45241221762E+01 0.79115507864E+01
 0.17253776266E+02 0.30337513091E+02 0.44206919729E+02 0.55987749225E+02 0.63612162166E+02
 0.66234134638E+02 0.64253252693E+02 0.58998057366E+02 0.52206576864E+02 0.45184582229E+02
 0.38454083378E+02 0.32310535086E+02 0.26898862749E+02 0.22254833091E+02 0.18347540037E+02
 0.15112296183E+02 0.12471212368E+02 0.10343872812E+02 0.86523003500E+01 0.73236921037E+01
 0.62926625442E+01 0.55032387237E+01 0.49101804286E+01 0.44792432037E+01 0.41863747086E+01
 0.40162004837E+01 0.36816247069E+01 0.37358877856E+01 0.39013208575E+01 0.41863747086E+01
 0.46066968222E+01 0.51869400114E+01 0.59623936737E+01 0.69798805173E+01 0.82975894805E+01
 0.99838820302E+01 0.12115445165E+02 0.14775134702E+02 0.18049075749E+02 0.22020993479E+02
 0.26759960194E+02 0.32297103736E+02 0.38588861270E+02 0.45469998600E+02 0.52608433202E+02
 0.59325567307E+02 0.63967272434E+02 0.64615037982E+02 0.59874346195E+02 0.49434965282E+02
 0.34403531462E+02 0.17253776266E+02 0.13418338147E+01 -.99184919544E+01 -.13985138155E+02
 -.99184919544E+01 0.13418338147E+01 0.17253776266E+02 0.34403531462E+02 0.49434965282E+02
 0.59874346195E+02 0.64615037982E+02 0.63967272434E+02 0.59325567307E+02 0.52608433202E+02
 0.45469998600E+02 0.38588861270E+02 0.32297103736E+02 0.26759960194E+02 0.22020993479E+02
 0.18049075749E+02 0.14775134702E+02 0.12115445165E+02 0.99838820302E+01 0.82975894805E+01
 0.69798805173E+01 0.59623936737E+01 0.51869400114E+01 0.46066968222E+01 0.41863747086E+01
 0.39013208575E+01 0.37358877856E+01 0.35199714192E+01 0.35732929058E+01 0.37358877856E+01
 0.40162004837E+01 0.44299639477E+01 0.50021071284E+01 0.57684707797E+01 0.67767718771E+01
 0.80865047373E+01 0.97678312584E+01 0.11899821256E+02 0.14568324699E+02 0.17862918976E+02
 0.21870725269E+02 0.26663080279E+02 0.32270454068E+02 0.38643199305E+02 0.45601685895E+02
 0.52788624063E+02 0.59386125813E+02 0.63532668351E+02 0.63199980958E+02 0.56957407531E+02
 0.44561345701E+02 0.27297190394E+02 0.79115507864E+01 -.99184919544E+01 -.22475736736E+02
 -.27000972460E+02 -.22475736736E+02 -.99184919544E+01 0.79115507864E+01 0.27297190394E+02
 0.44561345701E+02 0.56957407531E+02 0.63199980958E+02 0.63532668351E+02 0.59386125813E+02
 0.52788624063E+02 0.45601685895E+02 0.38643199305E+02 0.32270454068E+02 0.26663080279E+02
 0.21870725269E+02 0.17862918976E+02 0.14568324699E+02 0.11899821256E+02 0.97678312584E+01
 0.80865047373E+01 0.67767718771E+01 0.57684707797E+01 0.50021071284E+01 0.44299639477E+01
 0.40162004837E+01 0.37358877856E+01 0.35732929058E+01 0.34669610584E+01 0.35199714192E+01
 0.36816247069E+01 0.39603530309E+01 0.43719037575E+01 0.49412829342E+01 0.57045018114E+01
 0.67095657841E+01 0.80163999018E+01 0.96957682530E+01 0.11827542833E+02 0.14498581027E+02
 0.17799611683E+02 0.21818863242E+02 0.26628353615E+02 0.32258181357E+02 0.38656404974E+02
 0.45638181985E+02 0.52836919712E+02 0.59379829742E+02 0.63337746263E+02 0.62645074099E+02
 0.55859787686E+02 0.42762878747E+02 0.24703377884E+02 0.45241221762E+01 -.13985138155E+02
 -.27000972460E+02 -.31688253679E+02 -.27000972460E+02 -.13985138155E+02 0.45241221762E+01
 0.24703377884E+02 0.42762878747E+02 0.55859787686E+02 0.62645074099E+02 0.63337746263E+02
 0.59379829742E+02 0.52836919712E+02 0.45638181985E+02 0.38656404974E+02 0.32258181357E+02
 0.26628353615E+02 0.21818863242E+02 0.17799611683E+02 0.14498581027E+02 0.11827542833E+02
 0.96957682530E+01 0.80163999018E+01 0.67095657841E+01 0.57045018114E+01 0.49412829342E+01