   8   8   0   0
  0.2002393E+02  0.5431000E-09  0.5431000E-09  0.5431000E-09  0.1000000E-14
  1.000000000000000E-004
  CAR 
 diamond Si                              
     11.93090827     -7.19180454  301      5.96502647      1.00000000
     -7.192  0.0000E+00  0.0000E+00
     -7.128  0.0000E+00  0.0000E+00
     -7.064  0.0000E+00  0.0000E+00
     -7.001  0.0000E+00  0.0000E+00
     -6.937  0.0000E+00  0.0000E+00
     -6.873  0.0000E+00  0.0000E+00
     -6.809  0.0000E+00  0.0000E+00
     -6.746  0.7125E-17  0.4541E-18
     -6.682  0.6351E-14  0.4053E-15
     -6.618  0.2696E-11  0.1723E-12
     -6.554  0.5369E-09  0.3440E-10
     -6.491  0.5109E-07  0.3291E-08
     -6.427  0.2375E-05  0.1547E-06
     -6.363  0.5525E-04  0.3676E-05
     -6.299  0.6593E-03  0.4570E-04
     -6.236  0.4156E-02  0.3106E-03
     -6.172  0.1457E-01  0.1239E-02
     -6.108  0.3170E-01  0.3260E-02
     -6.044  0.5055E-01  0.6482E-02
     -5.981  0.6547E-01  0.1066E-01
     -5.917  0.7508E-01  0.1544E-01
     -5.853  0.8797E-01  0.2105E-01
     -5.789  0.9966E-01  0.2740E-01
     -5.726  0.1048E+00  0.3408E-01
     -5.662  0.1076E+00  0.4094E-01
     -5.598  0.1182E+00  0.4848E-01
     -5.535  0.1372E+00  0.5723E-01
     -5.471  0.1429E+00  0.6634E-01
     -5.407  0.1323E+00  0.7477E-01
     -5.343  0.1329E+00  0.8324E-01
     -5.280  0.1598E+00  0.9343E-01
     -5.216  0.1789E+00  0.1048E+00
     -5.152  0.1741E+00  0.1159E+00
     -5.088  0.1645E+00  0.1264E+00
     -5.025  0.1732E+00  0.1375E+00
     -4.961  0.1841E+00  0.1492E+00
     -4.897  0.1855E+00  0.1610E+00
     -4.833  0.2015E+00  0.1739E+00
     -4.770  0.2296E+00  0.1885E+00
     -4.706  0.2321E+00  0.2033E+00
     -4.642  0.2107E+00  0.2167E+00
     -4.578  0.1977E+00  0.2293E+00
     -4.515  0.2075E+00  0.2425E+00
     -4.451  0.2438E+00  0.2581E+00
     -4.387  0.2870E+00  0.2764E+00
     -4.323  0.2873E+00  0.2947E+00
     -4.260  0.2570E+00  0.3111E+00
     -4.196  0.2638E+00  0.3279E+00
     -4.132  0.2914E+00  0.3465E+00
     -4.068  0.2961E+00  0.3653E+00
     -4.005  0.3068E+00  0.3849E+00
     -3.941  0.3363E+00  0.4063E+00
     -3.877  0.3713E+00  0.4300E+00
     -3.813  0.4233E+00  0.4570E+00
     -3.750  0.4500E+00  0.4857E+00
     -3.686  0.3857E+00  0.5103E+00
     -3.622  0.3087E+00  0.5299E+00
     -3.558  0.3357E+00  0.5513E+00
     -3.495  0.3744E+00  0.5752E+00
     -3.431  0.3264E+00  0.5960E+00
     -3.367  0.2931E+00  0.6147E+00
     -3.304  0.3117E+00  0.6346E+00
     -3.240  0.3406E+00  0.6563E+00
     -3.176  0.3729E+00  0.6800E+00
     -3.112  0.3570E+00  0.7028E+00
     -3.049  0.2811E+00  0.7207E+00
     -2.985  0.2028E+00  0.7336E+00
     -2.921  0.1696E+00  0.7444E+00
     -2.857  0.1736E+00  0.7555E+00
     -2.794  0.2168E+00  0.7693E+00
     -2.730  0.2932E+00  0.7880E+00
     -2.666  0.3237E+00  0.8087E+00
     -2.602  0.2785E+00  0.8264E+00
     -2.539  0.2118E+00  0.8399E+00
     -2.475  0.1433E+00  0.8490E+00
     -2.411  0.9425E-01  0.8550E+00
     -2.347  0.7738E-01  0.8600E+00
     -2.284  0.7895E-01  0.8650E+00
     -2.220  0.8774E-01  0.8706E+00
     -2.156  0.9559E-01  0.8767E+00
     -2.092  0.1053E+00  0.8834E+00
     -2.029  0.1171E+00  0.8909E+00
     -1.965  0.1151E+00  0.8982E+00
     -1.901  0.8956E-01  0.9039E+00
     -1.837  0.6211E-01  0.9079E+00
     -1.774  0.5080E-01  0.9111E+00
     -1.710  0.5050E-01  0.9143E+00
     -1.646  0.5744E-01  0.9180E+00
     -1.582  0.6731E-01  0.9223E+00
     -1.519  0.1094E+00  0.9293E+00
     -1.455  0.2457E+00  0.9449E+00
     -1.391  0.3988E+00  0.9703E+00
     -1.328  0.3859E+00  0.9949E+00
     -1.264  0.2814E+00  0.1013E+01
     -1.200  0.2786E+00  0.1031E+01
     -1.136  0.4002E+00  0.1056E+01
     -1.073  0.5491E+00  0.1091E+01
     -1.009  0.6082E+00  0.1130E+01
     -0.945  0.5799E+00  0.1167E+01
     -0.881  0.4879E+00  0.1198E+01
     -0.818  0.3947E+00  0.1223E+01
     -0.754  0.4269E+00  0.1250E+01
     -0.690  0.4797E+00  0.1281E+01
     -0.626  0.3735E+00  0.1305E+01
     -0.563  0.2119E+00  0.1318E+01
     -0.499  0.1849E+00  0.1330E+01
     -0.435  0.2681E+00  0.1347E+01
     -0.371  0.3200E+00  0.1368E+01
     -0.308  0.2670E+00  0.1385E+01
     -0.244  0.1856E+00  0.1396E+01
     -0.180  0.1448E+00  0.1406E+01
     -0.116  0.1655E+00  0.1416E+01
     -0.053  0.2720E+00  0.1433E+01
      0.011  0.3423E+00  0.1455E+01
      0.075  0.2666E+00  0.1472E+01
      0.139  0.1468E+00  0.1482E+01
      0.202  0.8674E-01  0.1487E+01
      0.266  0.9323E-01  0.1493E+01
      0.330  0.1491E+00  0.1503E+01
      0.394  0.2240E+00  0.1517E+01
      0.457  0.2272E+00  0.1531E+01
      0.521  0.1490E+00  0.1541E+01
      0.585  0.1032E+00  0.1547E+01
      0.649  0.9100E-01  0.1553E+01
      0.712  0.8373E-01  0.1559E+01
      0.776  0.1245E+00  0.1567E+01
      0.840  0.2063E+00  0.1580E+01
      0.903  0.2202E+00  0.1594E+01
      0.967  0.1394E+00  0.1603E+01
      1.031  0.6782E-01  0.1607E+01
      1.095  0.4784E-01  0.1610E+01
      1.158  0.5510E-01  0.1613E+01
      1.222  0.7457E-01  0.1618E+01
      1.286  0.1277E+00  0.1626E+01
      1.350  0.2232E+00  0.1641E+01
      1.413  0.2888E+00  0.1659E+01
      1.477  0.3327E+00  0.1680E+01
      1.541  0.4132E+00  0.1707E+01
      1.605  0.4767E+00  0.1737E+01
      1.668  0.4709E+00  0.1767E+01
      1.732  0.4528E+00  0.1796E+01
      1.796  0.5080E+00  0.1828E+01
      1.860  0.5855E+00  0.1866E+01
      1.923  0.5694E+00  0.1902E+01
      1.987  0.4796E+00  0.1932E+01
      2.051  0.3999E+00  0.1958E+01
      2.115  0.3692E+00  0.1981E+01
      2.178  0.4177E+00  0.2008E+01
      2.242  0.4922E+00  0.2039E+01
      2.306  0.5117E+00  0.2072E+01
      2.370  0.5086E+00  0.2104E+01
      2.433  0.5281E+00  0.2138E+01
      2.497  0.5276E+00  0.2172E+01
      2.561  0.5119E+00  0.2204E+01
      2.625  0.4935E+00  0.2236E+01
      2.688  0.4816E+00  0.2267E+01
      2.752  0.5372E+00  0.2301E+01
      2.816  0.6330E+00  0.2341E+01
      2.879  0.6987E+00  0.2386E+01
      2.943  0.7111E+00  0.2431E+01
      3.007  0.6861E+00  0.2475E+01
      3.071  0.6769E+00  0.2518E+01
      3.134  0.6668E+00  0.2560E+01
      3.198  0.6228E+00  0.2600E+01
      3.262  0.5781E+00  0.2637E+01
      3.326  0.5979E+00  0.2675E+01
      3.389  0.6927E+00  0.2719E+01
      3.453  0.7347E+00  0.2766E+01
      3.517  0.6386E+00  0.2807E+01
      3.581  0.5161E+00  0.2840E+01
      3.644  0.5041E+00  0.2872E+01
      3.708  0.5862E+00  0.2909E+01
      3.772  0.6430E+00  0.2950E+01
      3.836  0.6395E+00  0.2991E+01
      3.899  0.5839E+00  0.3028E+01
      3.963  0.5319E+00  0.3062E+01
      4.027  0.5094E+00  0.3094E+01
      4.091  0.4879E+00  0.3126E+01
      4.154  0.5326E+00  0.3160E+01
      4.218  0.6177E+00  0.3199E+01
      4.282  0.6041E+00  0.3237E+01
      4.346  0.4976E+00  0.3269E+01
      4.409  0.4111E+00  0.3295E+01
      4.473  0.4006E+00  0.3321E+01
      4.537  0.4543E+00  0.3350E+01
      4.601  0.4700E+00  0.3380E+01
      4.664  0.3746E+00  0.3404E+01
      4.728  0.2678E+00  0.3421E+01
      4.792  0.2323E+00  0.3436E+01
      4.856  0.2300E+00  0.3450E+01
      4.919  0.2239E+00  0.3464E+01
      4.983  0.2314E+00  0.3479E+01
      5.047  0.2201E+00  0.3493E+01
      5.110  0.1680E+00  0.3504E+01
      5.174  0.1386E+00  0.3513E+01
      5.238  0.1340E+00  0.3521E+01
      5.302  0.1162E+00  0.3529E+01
      5.365  0.1039E+00  0.3535E+01
      5.429  0.1033E+00  0.3542E+01
      5.493  0.8919E-01  0.3548E+01
      5.557  0.6079E-01  0.3551E+01
      5.620  0.3488E-01  0.3554E+01
      5.684  0.1877E-01  0.3555E+01
      5.748  0.8093E-02  0.3555E+01
      5.812  0.2065E-02  0.3556E+01
      5.875  0.2688E-03  0.3556E+01
      5.939  0.1710E-04  0.3556E+01
      6.003  0.1602E-05  0.3556E+01
      6.067  0.3136E-04  0.3556E+01
      6.130  0.4311E-03  0.3556E+01
      6.194  0.2870E-02  0.3556E+01
      6.258  0.9600E-02  0.3556E+01
      6.322  0.1829E-01  0.3558E+01
      6.385  0.3117E-01  0.3560E+01
      6.449  0.6836E-01  0.3564E+01
      6.513  0.1214E+00  0.3572E+01
      6.577  0.1415E+00  0.3581E+01
      6.640  0.1378E+00  0.3589E+01
      6.704  0.1520E+00  0.3599E+01
      6.768  0.1769E+00  0.3610E+01
      6.832  0.1885E+00  0.3622E+01
      6.895  0.1785E+00  0.3634E+01
      6.959  0.1928E+00  0.3646E+01
      7.023  0.2693E+00  0.3663E+01
      7.086  0.3229E+00  0.3684E+01
      7.150  0.3104E+00  0.3704E+01
      7.214  0.2773E+00  0.3721E+01
      7.278  0.2823E+00  0.3739E+01
      7.341  0.3631E+00  0.3762E+01
      7.405  0.4309E+00  0.3790E+01
      7.469  0.4195E+00  0.3817E+01
      7.533  0.3948E+00  0.3842E+01
      7.596  0.4228E+00  0.3869E+01
      7.660  0.4769E+00  0.3899E+01
      7.724  0.5347E+00  0.3933E+01
      7.788  0.6268E+00  0.3973E+01
      7.851  0.7067E+00  0.4018E+01
      7.915  0.7371E+00  0.4065E+01
      7.979  0.7672E+00  0.4114E+01
      8.043  0.7569E+00  0.4162E+01
      8.106  0.6502E+00  0.4204E+01
      8.170  0.5726E+00  0.4240E+01
      8.234  0.6079E+00  0.4279E+01
      8.298  0.6433E+00  0.4320E+01
      8.361  0.5654E+00  0.4356E+01
      8.425  0.4666E+00  0.4386E+01
      8.489  0.4714E+00  0.4416E+01
      8.553  0.5171E+00  0.4449E+01
      8.616  0.5374E+00  0.4483E+01
      8.680  0.5433E+00  0.4518E+01
      8.744  0.5307E+00  0.4552E+01
      8.808  0.4980E+00  0.4583E+01
      8.871  0.5572E+00  0.4619E+01
      8.935  0.7802E+00  0.4669E+01
      8.999  0.9832E+00  0.4731E+01
      9.063  0.9621E+00  0.4793E+01
      9.126  0.8030E+00  0.4844E+01
      9.190  0.6890E+00  0.4888E+01
      9.254  0.6599E+00  0.4930E+01
      9.317  0.6995E+00  0.4974E+01
      9.381  0.7583E+00  0.5023E+01
      9.445  0.7762E+00  0.5072E+01
      9.509  0.7261E+00  0.5118E+01
      9.572  0.6276E+00  0.5158E+01
      9.636  0.5597E+00  0.5194E+01
      9.700  0.5448E+00  0.5229E+01
      9.764  0.5129E+00  0.5262E+01
      9.827  0.4569E+00  0.5291E+01
      9.891  0.4010E+00  0.5316E+01
      9.955  0.3878E+00  0.5341E+01
     10.019  0.4180E+00  0.5368E+01
     10.082  0.4359E+00  0.5395E+01
     10.146  0.4137E+00  0.5422E+01
     10.210  0.3795E+00  0.5446E+01
     10.274  0.3865E+00  0.5471E+01
     10.337  0.3957E+00  0.5496E+01
     10.401  0.3160E+00  0.5516E+01
     10.465  0.2041E+00  0.5529E+01
     10.529  0.1298E+00  0.5537E+01
     10.592  0.8871E-01  0.5543E+01
     10.656  0.6674E-01  0.5547E+01
     10.720  0.4772E-01  0.5550E+01
     10.784  0.3131E-01  0.5552E+01
     10.847  0.2141E-01  0.5554E+01
     10.911  0.1630E-01  0.5555E+01
     10.975  0.1035E-01  0.5555E+01
     11.039  0.4262E-02  0.5555E+01
     11.102  0.9941E-03  0.5556E+01
     11.166  0.1191E-03  0.5556E+01
     11.230  0.6880E-05  0.5556E+01
     11.293  0.1856E-06  0.5556E+01
     11.357  0.2298E-08  0.5556E+01
     11.421  0.1294E-10  0.5556E+01
     11.485  0.3292E-13  0.5556E+01
     11.548  0.3839E-16  0.5556E+01
     11.612  0.0000E+00  0.5556E+01
     11.676  0.0000E+00  0.5556E+01
     11.740  0.0000E+00  0.5556E+01
     11.803  0.0000E+00  0.5556E+01
     11.867  0.0000E+00  0.5556E+01
     11.931  0.0000E+00  0.5556E+01
