The current hostname is p0046.ten.osc.edu
The current working directory is /users/PAA0028/sjtuwjx1994
Switching to the working directory /users/PAA0028/sjtuwjx1994/repos/vasp_tutorials/lessons/lesson_02/encut_convergence/200
switching compiler chain
module load intel/19.0.5
module load intelmpi/2019.3
VASP_STD_BIN=/users/PAA0028/sjtuwjx1994/usr/local/vasp/vasp.5.4.1/bin/vasp_std
 running on   40 total cores
 distrk:  each k-point on   40 cores,    1 groups
 distr:  one band on    8 cores,    5 groups
 using from now: INCAR     
 vasp.5.4.1 05Feb16 (build Feb 24 2020 14:33:01) complex                        
  
 POSCAR found type information on POSCAR  Si
 POSCAR found :  1 types and       8 ions
 scaLAPACK will be used
 LDA part: xc-table for Pade appr. of Perdew
 POSCAR, INCAR and KPOINTS ok, starting setup
 FFT: planning ...
 WAVECAR not read
 entering main loop
       N       E                     dE             d eps       ncg     rms          rms(c)
DAV:   1     0.233622519225E+02    0.23362E+02   -0.70084E+03  2800   0.486E+02
DAV:   2    -0.415201045525E+02   -0.64882E+02   -0.61830E+02  3705   0.103E+02
DAV:   3    -0.438879062681E+02   -0.23678E+01   -0.23557E+01  3625   0.189E+01    0.124E+01
DAV:   4    -0.434144291050E+02    0.47348E+00   -0.40293E-01  3610   0.289E+00    0.748E+00
DAV:   5    -0.431867185420E+02    0.22771E+00   -0.50957E-01  3305   0.283E+00    0.353E-01
DAV:   6    -0.431909726156E+02   -0.42541E-02   -0.22283E-02  3460   0.640E-01    0.162E-01
DAV:   7    -0.431919661790E+02   -0.99356E-03   -0.12501E-03  3415   0.155E-01    0.131E-01
DAV:   8    -0.431921796633E+02   -0.21348E-03   -0.30757E-04  3310   0.862E-02    0.744E-03
DAV:   9    -0.431921903180E+02   -0.10655E-04   -0.11017E-05  1955   0.161E-02
   1 F= -.43192190E+02 E0= -.43192190E+02  d E =-.431922E+02
 curvature:   0.00 expect dE= 0.000E+00 dE for cont linesearch  0.000E+00
 trial: gam= 0.00000 g(F)=  0.286E-59 g(S)=  0.116E+00 ort = 0.000E+00 (trialstep = 0.100E+01)
 search vector abs. value=  0.116E+00
 bond charge predicted
       N       E                     dE             d eps       ncg     rms          rms(c)
DAV:   1    -0.432071001875E+02   -0.14921E-01   -0.27943E+00  3230   0.657E+00
DAV:   2    -0.432132216960E+02   -0.61215E-02   -0.61215E-02  3530   0.103E+00
DAV:   3    -0.432132611667E+02   -0.39471E-04   -0.39471E-04  3390   0.927E-02    0.194E+00
DAV:   4    -0.431519916270E+02    0.61270E-01   -0.29227E-02  2885   0.606E-01    0.952E-01
DAV:   5    -0.431217825392E+02    0.30209E-01   -0.43707E-02  3310   0.748E-01    0.311E-01
DAV:   6    -0.431214722738E+02    0.31027E-03   -0.19389E-03  3360   0.190E-01    0.103E-01
DAV:   7    -0.431214250017E+02    0.47272E-04   -0.16287E-04  2645   0.463E-02
   2 F= -.43121425E+02 E0= -.43121425E+02  d E =0.707653E-01
 trial-energy change:    0.070765  1 .order    0.066724   -0.115934    0.249383
 step:   0.3033(harm=  0.3174)  dis= 0.00000  next Energy=   -43.209661 (dE=-0.175E-01)
 bond charge predicted
       N       E                     dE             d eps       ncg     rms          rms(c)
DAV:   1    -0.432505626595E+02   -0.12909E+00   -0.14003E+00  3230   0.476E+00
DAV:   2    -0.432543320210E+02   -0.37694E-02   -0.37694E-02  3540   0.758E-01
DAV:   3    -0.432543497556E+02   -0.17735E-04   -0.17735E-04  3165   0.647E-02    0.139E+00
DAV:   4    -0.432240592113E+02    0.30291E-01   -0.14379E-02  2855   0.431E-01    0.671E-01
DAV:   5    -0.432093714711E+02    0.14688E-01   -0.21037E-02  3215   0.525E-01    0.233E-01
DAV:   6    -0.432093022132E+02    0.69258E-04   -0.94564E-04  3410   0.135E-01
   3 F= -.43209302E+02 E0= -.43209302E+02  d E =-.171119E-01
 curvature:  -0.16 expect dE=-0.399E-04 dE for cont linesearch -0.399E-04
 ZBRENT: interpolating
 opt :   0.2898  next Energy=   -43.209339 (dE=-0.171E-01)
 bond charge predicted
       N       E                     dE             d eps       ncg     rms          rms(c)
DAV:   1    -0.432092541237E+02    0.11735E-03   -0.30828E-04  2970   0.745E-02
DAV:   2    -0.432092546997E+02   -0.57596E-06   -0.57637E-06  1475   0.979E-03
DAV:   3    -0.432092547416E+02   -0.41949E-07   -0.41285E-07  1465   0.318E-03    0.276E-02
DAV:   4    -0.432092472128E+02    0.75288E-05   -0.39768E-06  1475   0.782E-03
   4 F= -.43209247E+02 E0= -.43209247E+02  d E =-.170569E-01
 curvature:  -0.14 expect dE=-0.386E-05 dE for cont linesearch -0.386E-05
 trial: gam=-0.01493 g(F)=  0.508E-59 g(S)=  0.267E-04 ort = 0.176E-02 (trialstep = 0.858E+00)
 search vector abs. value=  0.623E-08
 reached required accuracy - stopping structural energy minimisation
 writing wavefunctions

-----------------------
Resources requested:
nodes=1:ppn=40
mem=190440mb
-----------------------
Resources used:
cput=00:09:45
walltime=00:00:19
mem=0.002GB
vmem=0.000GB
-----------------------
Resource units charged (estimate):
0.021 RUs
-----------------------
