 vasp.5.4.1 05Feb16 (build Feb 24 2020 14:33:01) complex                        
  
 executed on           IFC91_ompi date 2020.02.27  22:01:28
 running on   40 total cores
 distrk:  each k-point on   40 cores,    1 groups
 distr:  one band on NCORES_PER_BAND=   8 cores,    5 groups


--------------------------------------------------------------------------------------------------------


 INCAR:
 POTCAR:    PAW_PBE Si 05Jan2001                  
 POTCAR:    PAW_PBE Si 05Jan2001                  
   VRHFIN =Si: s2p2                                                             
   LEXCH  = PE                                                                  
   EATOM  =   103.0669 eV,    7.5752 Ry                                         
                                                                                
   TITEL  = PAW_PBE Si 05Jan2001                                                
   LULTRA =        F    use ultrasoft PP ?                                      
   IUNSCR =        1    unscreen: 0-lin 1-nonlin 2-no                           
   RPACOR =    1.500    partial core radius                                     
   POMASS =   28.085; ZVAL   =    4.000    mass and valenz                      
   RCORE  =    1.900    outmost cutoff radius                                   
   RWIGS  =    2.480; RWIGS  =    1.312    wigner-seitz radius (au A)           
   ENMAX  =  245.345; ENMIN  =  184.009 eV                                      
   ICORE  =        2    local potential                                         
   LCOR   =        T    correct aug charges                                     
   LPAW   =        T    paw PP                                                  
   EAUG   =  322.069                                                            
   DEXC   =    0.000                                                            
   RMAX   =    1.950    core radius for proj-oper                               
   RAUG   =    1.300    factor for augmentation sphere                          
   RDEP   =    1.993    radius for radial grids                                 
   RDEPT  =    1.837    core radius for aug-charge                              
                                                                                
   Atomic configuration                                                         
    6 entries                                                                   
     n  l   j            E        occ.                                          
     1  0  0.50     -1785.8828   2.0000                                         
     2  0  0.50      -139.4969   2.0000                                         
     2  1  1.50       -95.5546   6.0000                                         
     3  0  0.50       -10.8127   2.0000                                         
     3  1  0.50        -4.0811   2.0000                                         
     3  2  1.50        -4.0817   0.0000                                         
   Description                                                                  
     l       E           TYP  RCUT    TYP  RCUT                                 
     0    -10.8127223     23  1.900                                             
     0     -7.6451159     23  1.900                                             
     1     -4.0811372     23  1.900                                             
     1      2.4879257     23  1.900                                             
     2     -4.0817478      7  1.900                                             
  local pseudopotential read in
  partial core-charges read in
  partial kinetic energy density read in
  atomic valenz-charges read in
  non local Contribution for L=           0  read in
    real space projection operators read in
  non local Contribution for L=           0  read in
    real space projection operators read in
  non local Contribution for L=           1  read in
    real space projection operators read in
  non local Contribution for L=           1  read in
    real space projection operators read in
    PAW grid and wavefunctions read in
 
   number of l-projection  operators is LMAX  =           4
   number of lm-projection operators is LMMAX =           8
 
  PAW_PBE Si 05Jan2001                  :
 energy of atom  1       EATOM= -103.0669
 kinetic energy error for atom=    0.0107 (will be added to EATOM!!)
 
 
 POSCAR: Si dia                                  
  positions in direct lattice
  No initial velocities read in
 exchange correlation table for  LEXCH =        8
   RHO(1)=    0.500       N(1)  =     2000
   RHO(2)=  100.500       N(2)  =     4000
 


--------------------------------------------------------------------------------------------------------


 ion  position               nearest neighbor table
   1  0.000  0.000  0.000-   5 2.35   6 2.35   7 2.35   8 2.35
   2  0.000  0.500  0.500-   5 2.35   6 2.35   7 2.35   8 2.35
   3  0.500  0.000  0.500-   5 2.35   6 2.35   7 2.35   8 2.35
   4  0.500  0.500  0.000-   5 2.35   6 2.35   7 2.35   8 2.35
   5  0.250  0.250  0.250-   1 2.35   2 2.35   3 2.35   4 2.35
   6  0.750  0.750  0.250-   1 2.35   2 2.35   3 2.35   4 2.35
   7  0.750  0.250  0.750-   1 2.35   2 2.35   3 2.35   4 2.35
   8  0.250  0.750  0.750-   1 2.35   2 2.35   3 2.35   4 2.35
 
  LATTYP: Found a simple cubic cell.
 ALAT       =     5.4310000000
  
  Lattice vectors:
  
 A1 = (   5.4310000000,   0.0000000000,   0.0000000000)
 A2 = (   0.0000000000,   5.4310000000,   0.0000000000)
 A3 = (   0.0000000000,   0.0000000000,   5.4310000000)


Analysis of symmetry for initial positions (statically):
=====================================================================
 Subroutine PRICEL returns following result:
 
  LATTYP: Found a face centered cubic cell.
 ALAT       =     5.4310000000
  
  Lattice vectors:
  
 A1 = (   2.7155000000,   2.7155000000,   0.0000000000)
 A2 = (   2.7155000000,   0.0000000000,  -2.7155000000)
 A3 = (   0.0000000000,   2.7155000000,  -2.7155000000)
 
   4 primitive cells build up your supercell.
 

 Routine SETGRP: Setting up the symmetry group for a 
 simple cubic supercell.


 Subroutine GETGRP returns: Found 48 space group operations
 (whereof 24 operations were pure point group operations)
 out of a pool of 48 trial point group operations.


The static configuration has the point symmetry T_d .
 The point group associated with its full space group is O_h .


Analysis of symmetry for dynamics (positions and initial velocities):
=====================================================================
 Subroutine PRICEL returns following result:
 
  LATTYP: Found a face centered cubic cell.
 ALAT       =     5.4310000000
  
  Lattice vectors:
  
 A1 = (   2.7155000000,   2.7155000000,   0.0000000000)
 A2 = (   2.7155000000,   0.0000000000,  -2.7155000000)
 A3 = (   0.0000000000,   2.7155000000,  -2.7155000000)
 
   4 primitive cells build up your supercell.
 

 Routine SETGRP: Setting up the symmetry group for a 
 simple cubic supercell.


 Subroutine GETGRP returns: Found 48 space group operations
 (whereof 24 operations were pure point group operations)
 out of a pool of 48 trial point group operations.


The dynamic configuration has the point symmetry T_d .
 The point group associated with its full space group is O_h .


 Subroutine INISYM returns: Found 48 space group operations
 (whereof 24 operations are pure point group operations),
 and found     4 'primitive' translations

 
 
 KPOINTS: k-points                                

Automatic generation of k-mesh.
Space group operators:
 irot       det(A)        alpha          n_x          n_y          n_z        tau_x        tau_y        tau_z
    1     1.000000     0.000001     1.000000     0.000000     0.000000     0.000000     0.000000     0.000000
    2     1.000000   120.000000    -0.577350    -0.577350    -0.577350     0.000000     0.000000     0.000000
    3     1.000000   120.000000     0.577350     0.577350     0.577350     0.000000     0.000000     0.000000
    4    -1.000000    90.000000     0.000000     0.000000    -1.000000     0.000000     0.000000     0.000000
    5    -1.000000   180.000000     0.000000     0.707107     0.707107     0.000000     0.000000     0.000000
    6    -1.000000    90.000000     0.000000     1.000000     0.000000     0.000000     0.000000     0.000000
    7     1.000000   180.000000     0.000000     0.000000     1.000000     0.000000     0.000000     0.000000
    8     1.000000   120.000000    -0.577350     0.577350     0.577350     0.000000     0.000000     0.000000
    9     1.000000   120.000000    -0.577350     0.577350    -0.577350     0.000000     0.000000     0.000000
   10    -1.000000    90.000000     0.000000     0.000000     1.000000     0.000000     0.000000     0.000000
   11    -1.000000    90.000000    -1.000000     0.000000     0.000000     0.000000     0.000000     0.000000
   12    -1.000000   180.000000     0.707107     0.000000     0.707107     0.000000     0.000000     0.000000
   13     1.000000   120.000000     0.577350    -0.577350     0.577350     0.000000     0.000000     0.000000
   14     1.000000   120.000000    -0.577350    -0.577350     0.577350     0.000000     0.000000     0.000000
   15     1.000000   180.000000     1.000000     0.000000     0.000000     0.000000     0.000000     0.000000
   16    -1.000000    90.000000     0.000000    -1.000000     0.000000     0.000000     0.000000     0.000000
   17    -1.000000   180.000000     0.707107     0.707107     0.000000     0.000000     0.000000     0.000000
   18    -1.000000    90.000000     1.000000     0.000000     0.000000     0.000000     0.000000     0.000000
   19     1.000000   120.000000     0.577350    -0.577350    -0.577350     0.000000     0.000000     0.000000
   20     1.000000   180.000000     0.000000     1.000000     0.000000     0.000000     0.000000     0.000000
   21     1.000000   120.000000     0.577350     0.577350    -0.577350     0.000000     0.000000     0.000000
   22    -1.000000   180.000000     0.000000    -0.707107     0.707107     0.000000     0.000000     0.000000
   23    -1.000000   180.000000     0.707107    -0.707107     0.000000     0.000000     0.000000     0.000000
   24    -1.000000   180.000000     0.707107     0.000000    -0.707107     0.000000     0.000000     0.000000
   25    -1.000000     0.000001     1.000000     0.000000     0.000000     0.750000     0.750000    -0.750000
   26    -1.000000   120.000000    -0.577350    -0.577350    -0.577350     0.750000     0.750000    -0.750000
   27    -1.000000   120.000000     0.577350     0.577350     0.577350     0.750000     0.750000    -0.750000
   28     1.000000    90.000000     0.000000     0.000000    -1.000000     0.750000     0.750000    -0.750000
   29     1.000000   180.000000     0.000000     0.707107     0.707107     0.750000     0.750000    -0.750000
   30     1.000000    90.000000     0.000000     1.000000     0.000000     0.750000     0.750000    -0.750000
   31    -1.000000   180.000000     0.000000     0.000000     1.000000     0.750000     0.750000    -0.750000
   32    -1.000000   120.000000    -0.577350     0.577350     0.577350     0.750000     0.750000    -0.750000
   33    -1.000000   120.000000    -0.577350     0.577350    -0.577350     0.750000     0.750000    -0.750000
   34     1.000000    90.000000     0.000000     0.000000     1.000000     0.750000     0.750000    -0.750000
   35     1.000000    90.000000    -1.000000     0.000000     0.000000     0.750000     0.750000    -0.750000
   36     1.000000   180.000000     0.707107     0.000000     0.707107     0.750000     0.750000    -0.750000
   37    -1.000000   120.000000     0.577350    -0.577350     0.577350     0.750000     0.750000    -0.750000
   38    -1.000000   120.000000    -0.577350    -0.577350     0.577350     0.750000     0.750000    -0.750000
   39    -1.000000   180.000000     1.000000     0.000000     0.000000     0.750000     0.750000    -0.750000
   40     1.000000    90.000000     0.000000    -1.000000     0.000000     0.750000     0.750000    -0.750000
   41     1.000000   180.000000     0.707107     0.707107     0.000000     0.750000     0.750000    -0.750000
   42     1.000000    90.000000     1.000000     0.000000     0.000000     0.750000     0.750000    -0.750000
   43    -1.000000   120.000000     0.577350    -0.577350    -0.577350     0.750000     0.750000    -0.750000
   44    -1.000000   180.000000     0.000000     1.000000     0.000000     0.750000     0.750000    -0.750000
   45    -1.000000   120.000000     0.577350     0.577350    -0.577350     0.750000     0.750000    -0.750000
   46     1.000000   180.000000     0.000000    -0.707107     0.707107     0.750000     0.750000    -0.750000
   47     1.000000   180.000000     0.707107    -0.707107     0.000000     0.750000     0.750000    -0.750000
   48     1.000000   180.000000     0.707107     0.000000    -0.707107     0.750000     0.750000    -0.750000
 
 Subroutine IBZKPT returns following result:
 ===========================================
 
 Found     56 irreducible k-points:
 
 Following reciprocal coordinates:
            Coordinates               Weight
  0.000000  0.000000  0.000000      1.000000
  0.090909  0.000000  0.000000      6.000000
  0.181818  0.000000  0.000000      6.000000
  0.272727  0.000000  0.000000      6.000000
  0.363636  0.000000  0.000000      6.000000
  0.454545  0.000000  0.000000      6.000000
  0.090909  0.090909  0.000000     12.000000
  0.181818  0.090909  0.000000     24.000000
  0.272727  0.090909  0.000000     24.000000
  0.363636  0.090909  0.000000     24.000000
  0.454545  0.090909  0.000000     24.000000
  0.181818  0.181818  0.000000     12.000000
  0.272727  0.181818  0.000000     24.000000
  0.363636  0.181818  0.000000     24.000000
  0.454545  0.181818  0.000000     24.000000
  0.272727  0.272727  0.000000     12.000000
  0.363636  0.272727  0.000000     24.000000
  0.454545  0.272727  0.000000     24.000000
  0.363636  0.363636  0.000000     12.000000
  0.454545  0.363636  0.000000     24.000000
  0.454545  0.454545  0.000000     12.000000
  0.090909  0.090909  0.090909      8.000000
  0.181818  0.090909  0.090909     24.000000
  0.272727  0.090909  0.090909     24.000000
  0.363636  0.090909  0.090909     24.000000
  0.454545  0.090909  0.090909     24.000000
  0.181818  0.181818  0.090909     24.000000
  0.272727  0.181818  0.090909     48.000000
  0.363636  0.181818  0.090909     48.000000
  0.454545  0.181818  0.090909     48.000000
  0.272727  0.272727  0.090909     24.000000
  0.363636  0.272727  0.090909     48.000000
  0.454545  0.272727  0.090909     48.000000
  0.363636  0.363636  0.090909     24.000000
  0.454545  0.363636  0.090909     48.000000
  0.454545  0.454545  0.090909     24.000000
  0.181818  0.181818  0.181818      8.000000
  0.272727  0.181818  0.181818     24.000000
  0.363636  0.181818  0.181818     24.000000
  0.454545  0.181818  0.181818     24.000000
  0.272727  0.272727  0.181818     24.000000
  0.363636  0.272727  0.181818     48.000000
  0.454545  0.272727  0.181818     48.000000
  0.363636  0.363636  0.181818     24.000000
  0.454545  0.363636  0.181818     48.000000
  0.454545  0.454545  0.181818     24.000000
  0.272727  0.272727  0.272727      8.000000
  0.363636  0.272727  0.272727     24.000000
  0.454545  0.272727  0.272727     24.000000
  0.363636  0.363636  0.272727     24.000000
  0.454545  0.363636  0.272727     48.000000
  0.454545  0.454545  0.272727     24.000000
  0.363636  0.363636  0.363636      8.000000
  0.454545  0.363636  0.363636     24.000000
  0.454545  0.454545  0.363636     24.000000
  0.454545  0.454545  0.454545      8.000000
 
 Following cartesian coordinates:
            Coordinates               Weight
  0.000000  0.000000  0.000000      1.000000
  0.090909  0.000000  0.000000      6.000000
  0.181818  0.000000  0.000000      6.000000
  0.272727  0.000000  0.000000      6.000000
  0.363636  0.000000  0.000000      6.000000
  0.454545  0.000000  0.000000      6.000000
  0.090909  0.090909  0.000000     12.000000
  0.181818  0.090909  0.000000     24.000000
  0.272727  0.090909  0.000000     24.000000
  0.363636  0.090909  0.000000     24.000000
  0.454545  0.090909  0.000000     24.000000
  0.181818  0.181818  0.000000     12.000000
  0.272727  0.181818  0.000000     24.000000
  0.363636  0.181818  0.000000     24.000000
  0.454545  0.181818  0.000000     24.000000
  0.272727  0.272727  0.000000     12.000000
  0.363636  0.272727  0.000000     24.000000
  0.454545  0.272727  0.000000     24.000000
  0.363636  0.363636  0.000000     12.000000
  0.454545  0.363636  0.000000     24.000000
  0.454545  0.454545  0.000000     12.000000
  0.090909  0.090909  0.090909      8.000000
  0.181818  0.090909  0.090909     24.000000
  0.272727  0.090909  0.090909     24.000000
  0.363636  0.090909  0.090909     24.000000
  0.454545  0.090909  0.090909     24.000000
  0.181818  0.181818  0.090909     24.000000
  0.272727  0.181818  0.090909     48.000000
  0.363636  0.181818  0.090909     48.000000
  0.454545  0.181818  0.090909     48.000000
  0.272727  0.272727  0.090909     24.000000
  0.363636  0.272727  0.090909     48.000000
  0.454545  0.272727  0.090909     48.000000
  0.363636  0.363636  0.090909     24.000000
  0.454545  0.363636  0.090909     48.000000
  0.454545  0.454545  0.090909     24.000000
  0.181818  0.181818  0.181818      8.000000
  0.272727  0.181818  0.181818     24.000000
  0.363636  0.181818  0.181818     24.000000
  0.454545  0.181818  0.181818     24.000000
  0.272727  0.272727  0.181818     24.000000
  0.363636  0.272727  0.181818     48.000000
  0.454545  0.272727  0.181818     48.000000
  0.363636  0.363636  0.181818     24.000000
  0.454545  0.363636  0.181818     48.000000
  0.454545  0.454545  0.181818     24.000000
  0.272727  0.272727  0.272727      8.000000
  0.363636  0.272727  0.272727     24.000000
  0.454545  0.272727  0.272727     24.000000
  0.363636  0.363636  0.272727     24.000000
  0.454545  0.363636  0.272727     48.000000
  0.454545  0.454545  0.272727     24.000000
  0.363636  0.363636  0.363636      8.000000
  0.454545  0.363636  0.363636     24.000000
  0.454545  0.454545  0.363636     24.000000
  0.454545  0.454545  0.454545      8.000000
 


--------------------------------------------------------------------------------------------------------




 Dimension of arrays:
   k-points           NKPTS =     56   k-points in BZ     NKDIM =     56   number of bands    NBANDS=     25
   number of dos      NEDOS =    301   number of ions     NIONS =      8
   non local maximal  LDIM  =      4   non local SUM 2l+1 LMDIM =      8
   total plane-waves  NPLWV =  21952
   max r-space proj   IRMAX =      1   max aug-charges    IRDMAX=   4781
   dimension x,y,z NGX =    28 NGY =   28 NGZ =   28
   dimension x,y,z NGXF=    56 NGYF=   56 NGZF=   56
   support grid    NGXF=    56 NGYF=   56 NGZF=   56
   ions per type =               8
 NGX,Y,Z   is equivalent  to a cutoff of   8.57,  8.57,  8.57 a.u.
 NGXF,Y,Z  is equivalent  to a cutoff of  17.14, 17.14, 17.14 a.u.


 I would recommend the setting:
   dimension x,y,z NGX =    25 NGY =   25 NGZ =   25
 SYSTEM =  diamond Si                              
 POSCAR =  Si dia                                  

 Startparameter for this run:
   NWRITE =      2    write-flag & timer
   PREC   = accura    normal or accurate (medium, high low for compatibility)
   ISTART =      0    job   : 0-new  1-cont  2-samecut
   ICHARG =      2    charge: 1-file 2-atom 10-const
   ISPIN  =      1    spin polarized calculation?
   LNONCOLLINEAR =      F non collinear calculations
   LSORBIT =      F    spin-orbit coupling
   INIWAV =      1    electr: 0-lowe 1-rand  2-diag
   LASPH  =      F    aspherical Exc in radial PAW
   METAGGA=      F    non-selfconsistent MetaGGA calc.

 Electronic Relaxation 1
   ENCUT  =  200.0 eV  14.70 Ry    3.83 a.u.   6.26  6.26  6.26*2*pi/ulx,y,z
   ENINI  =  200.0     initial cutoff
   ENAUG  =  322.1 eV  augmentation charge cutoff
   NELM   =     60;   NELMIN=  0; NELMDL=  3     # of ELM steps 
   EDIFF  = 0.1E-03   stopping-criterion for ELM
   LREAL  =      F    real-space projection
   NLSPLINE    = F    spline interpolate recip. space projectors
   LCOMPAT=      F    compatible to vasp.4.4
   GGA_COMPAT  = T    GGA compatible to vasp.4.4-vasp.4.6
   LMAXPAW     = -100 max onsite density
   LMAXMIX     =    2 max onsite mixed and CHGCAR
   VOSKOWN=      0    Vosko Wilk Nusair interpolation
   ROPT   =    0.00000
 Ionic relaxation
   EDIFFG = -.1E-01   stopping-criterion for IOM
   NSW    =      9    number of steps for IOM
   NBLOCK =      1;   KBLOCK =      9    inner block; outer block 
   IBRION =      2    ionic relax: 0-MD 1-quasi-New 2-CG
   NFREE  =      1    steps in history (QN), initial steepest desc. (CG)
   ISIF   =      3    stress and relaxation
   IWAVPR =     11    prediction:  0-non 1-charg 2-wave 3-comb
   ISYM   =      2    0-nonsym 1-usesym 2-fastsym
   LCORR  =      T    Harris-Foulkes like correction to forces

   POTIM  = 1.0000    time-step for ionic-motion
   TEIN   =    0.0    initial temperature
   TEBEG  =    0.0;   TEEND  =   0.0 temperature during run
   SMASS  =  -3.00    Nose mass-parameter (am)
   estimated Nose-frequenzy (Omega)   =  0.10E-29 period in steps =****** mass=  -0.674E-27a.u.
   SCALEE = 1.0000    scale energy and forces
   NPACO  =    256;   APACO  = 16.0  distance and # of slots for P.C.
   PSTRESS=    0.0 pullay stress

  Mass of Ions in am
   POMASS =  28.09
  Ionic Valenz
   ZVAL   =   4.00
  Atomic Wigner-Seitz radii
   RWIGS  =  -1.00
  virtual crystal weights 
   VCA    =   1.00
   NELECT =      32.0000    total number of electrons
   NUPDOWN=      -1.0000    fix difference up-down

 DOS related values:
   EMIN   =  10.00;   EMAX   =-10.00  energy-range for DOS
   EFERMI =   0.00
   ISMEAR =     0;   SIGMA  =   0.10  broadening in eV -4-tet -1-fermi 0-gaus

 Electronic relaxation 2 (details)
   IALGO  =     38    algorithm
   LDIAG  =      T    sub-space diagonalisation (order eigenvalues)
   LSUBROT=      F    optimize rotation matrix (better conditioning)
   TURBO    =      0    0=normal 1=particle mesh
   IRESTART =      0    0=no restart 2=restart with 2 vectors
   NREBOOT  =      0    no. of reboots
   NMIN     =      0    reboot dimension
   EREF     =   0.00    reference energy to select bands
   IMIX   =      4    mixing-type and parameters
     AMIX     =   0.40;   BMIX     =  1.00
     AMIX_MAG =   1.60;   BMIX_MAG =  1.00
     AMIN     =   0.10
     WC   =   100.;   INIMIX=   1;  MIXPRE=   1;  MAXMIX= -45

 Intra band minimization:
   WEIMIN = 0.0010     energy-eigenvalue tresh-hold
   EBREAK =  0.10E-05  absolut break condition
   DEPER  =   0.30     relativ break condition  

   TIME   =   0.40     timestep for ELM

  volume/ion in A,a.u.               =      20.02       135.13
  Fermi-wavevector in a.u.,A,eV,Ry     =   0.956999  1.808467 12.460868  0.915848
  Thomas-Fermi vector in A             =   2.085978
 
 Write flags
   LWAVE  =      T    write WAVECAR
   LCHARG =      T    write CHGCAR
   LVTOT  =      F    write LOCPOT, total local potential
   LVHAR  =      F    write LOCPOT, Hartree potential only
   LELF   =      F    write electronic localiz. function (ELF)
   LORBIT =      0    0 simple, 1 ext, 2 COOP (PROOUT)


 Dipole corrections
   LMONO  =      F    monopole corrections only (constant potential shift)
   LDIPOL =      F    correct potential (dipole corrections)
   IDIPOL =      0    1-x, 2-y, 3-z, 4-all directions 
   EPSILON=  1.0000000 bulk dielectric constant

 Exchange correlation treatment:
   GGA     =    --    GGA type
   LEXCH   =     8    internal setting for exchange type
   VOSKOWN=      0    Vosko Wilk Nusair interpolation
   LHFCALC =     F    Hartree Fock is set to
   LHFONE  =     F    Hartree Fock one center treatment
   AEXX    =    0.0000 exact exchange contribution

 Linear response parameters
   LEPSILON=     F    determine dielectric tensor
   LRPA    =     F    only Hartree local field effects (RPA)
   LNABLA  =     F    use nabla operator in PAW spheres
   LVEL    =     F    velocity operator in full k-point grid
   LINTERFAST=   F  fast interpolation
   KINTER  =     0    interpolate to denser k-point grid
   CSHIFT  =0.1000    complex shift for real part using Kramers Kronig
   OMEGAMAX=  -1.0    maximum frequency
   DEG_THRESHOLD= 0.2000000E-02 threshold for treating states as degnerate
   RTIME   =    0.100 relaxation time in fs

 Orbital magnetization related:
   ORBITALMAG=     F  switch on orbital magnetization
   LCHIMAG   =     F  perturbation theory with respect to B field
   DQ        =  0.001000  dq finite difference perturbation B field



--------------------------------------------------------------------------------------------------------


 conjugate gradient relaxation of ions
 charge density and potential will be updated during run
 non-spin polarized calculation
 Variant of blocked Davidson
 Davidson routine will perform the subspace rotation
 perform sub-space diagonalisation
    after iterative eigenvector-optimisation
 modified Broyden-mixing scheme, WC =      100.0
 initial mixing is a Kerker type mixing with AMIX =  0.4000 and BMIX =      1.0000
 Hartree-type preconditioning will be used
 using additional bands            9
 reciprocal scheme for non local part
 use partial core corrections
 calculate Harris-corrections to forces 
   (improved forces if not selfconsistent)
 use gradient corrections 
 use of overlap-Matrix (Vanderbilt PP)
 Gauss-broadening in eV      SIGMA  =   0.10


--------------------------------------------------------------------------------------------------------


  energy-cutoff  :      200.00
  volume of cell :      160.19
      direct lattice vectors                 reciprocal lattice vectors
     5.431000000  0.000000000  0.000000000     0.184128153  0.000000000  0.000000000
     0.000000000  5.431000000  0.000000000     0.000000000  0.184128153  0.000000000
     0.000000000  0.000000000  5.431000000     0.000000000  0.000000000  0.184128153

  length of vectors
     5.431000000  5.431000000  5.431000000     0.184128153  0.184128153  0.184128153


 
 k-points in units of 2pi/SCALE and weight: k-points                                
   0.00000000  0.00000000  0.00000000       0.001
   0.09090909  0.00000000  0.00000000       0.005
   0.18181818  0.00000000  0.00000000       0.005
   0.27272727  0.00000000  0.00000000       0.005
   0.36363636  0.00000000  0.00000000       0.005
   0.45454545  0.00000000  0.00000000       0.005
   0.09090909  0.09090909  0.00000000       0.009
   0.18181818  0.09090909  0.00000000       0.018
   0.27272727  0.09090909  0.00000000       0.018
   0.36363636  0.09090909  0.00000000       0.018
   0.45454545  0.09090909  0.00000000       0.018
   0.18181818  0.18181818  0.00000000       0.009
   0.27272727  0.18181818  0.00000000       0.018
   0.36363636  0.18181818  0.00000000       0.018
   0.45454545  0.18181818  0.00000000       0.018
   0.27272727  0.27272727  0.00000000       0.009
   0.36363636  0.27272727  0.00000000       0.018
   0.45454545  0.27272727  0.00000000       0.018
   0.36363636  0.36363636  0.00000000       0.009
   0.45454545  0.36363636  0.00000000       0.018
   0.45454545  0.45454545  0.00000000       0.009
   0.09090909  0.09090909  0.09090909       0.006
   0.18181818  0.09090909  0.09090909       0.018
   0.27272727  0.09090909  0.09090909       0.018
   0.36363636  0.09090909  0.09090909       0.018
   0.45454545  0.09090909  0.09090909       0.018
   0.18181818  0.18181818  0.09090909       0.018
   0.27272727  0.18181818  0.09090909       0.036
   0.36363636  0.18181818  0.09090909       0.036
   0.45454545  0.18181818  0.09090909       0.036
   0.27272727  0.27272727  0.09090909       0.018
   0.36363636  0.27272727  0.09090909       0.036
   0.45454545  0.27272727  0.09090909       0.036
   0.36363636  0.36363636  0.09090909       0.018
   0.45454545  0.36363636  0.09090909       0.036
   0.45454545  0.45454545  0.09090909       0.018
   0.18181818  0.18181818  0.18181818       0.006
   0.27272727  0.18181818  0.18181818       0.018
   0.36363636  0.18181818  0.18181818       0.018
   0.45454545  0.18181818  0.18181818       0.018
   0.27272727  0.27272727  0.18181818       0.018
   0.36363636  0.27272727  0.18181818       0.036
   0.45454545  0.27272727  0.18181818       0.036
   0.36363636  0.36363636  0.18181818       0.018
   0.45454545  0.36363636  0.18181818       0.036
   0.45454545  0.45454545  0.18181818       0.018
   0.27272727  0.27272727  0.27272727       0.006
   0.36363636  0.27272727  0.27272727       0.018
   0.45454545  0.27272727  0.27272727       0.018
   0.36363636  0.36363636  0.27272727       0.018
   0.45454545  0.36363636  0.27272727       0.036
   0.45454545  0.45454545  0.27272727       0.018
   0.36363636  0.36363636  0.36363636       0.006
   0.45454545  0.36363636  0.36363636       0.018
   0.45454545  0.45454545  0.36363636       0.018
   0.45454545  0.45454545  0.45454545       0.006
 
 k-points in reciprocal lattice and weights: k-points                                
   0.00000000  0.00000000  0.00000000       0.001
   0.09090909  0.00000000  0.00000000       0.005
   0.18181818  0.00000000  0.00000000       0.005
   0.27272727  0.00000000  0.00000000       0.005
   0.36363636  0.00000000  0.00000000       0.005
   0.45454545  0.00000000  0.00000000       0.005
   0.09090909  0.09090909  0.00000000       0.009
   0.18181818  0.09090909  0.00000000       0.018
   0.27272727  0.09090909  0.00000000       0.018
   0.36363636  0.09090909  0.00000000       0.018
   0.45454545  0.09090909  0.00000000       0.018
   0.18181818  0.18181818  0.00000000       0.009
   0.27272727  0.18181818  0.00000000       0.018
   0.36363636  0.18181818  0.00000000       0.018
   0.45454545  0.18181818  0.00000000       0.018
   0.27272727  0.27272727  0.00000000       0.009
   0.36363636  0.27272727  0.00000000       0.018
   0.45454545  0.27272727  0.00000000       0.018
   0.36363636  0.36363636  0.00000000       0.009
   0.45454545  0.36363636  0.00000000       0.018
   0.45454545  0.45454545  0.00000000       0.009
   0.09090909  0.09090909  0.09090909       0.006
   0.18181818  0.09090909  0.09090909       0.018
   0.27272727  0.09090909  0.09090909       0.018
   0.36363636  0.09090909  0.09090909       0.018
   0.45454545  0.09090909  0.09090909       0.018
   0.18181818  0.18181818  0.09090909       0.018
   0.27272727  0.18181818  0.09090909       0.036
   0.36363636  0.18181818  0.09090909       0.036
   0.45454545  0.18181818  0.09090909       0.036
   0.27272727  0.27272727  0.09090909       0.018
   0.36363636  0.27272727  0.09090909       0.036
   0.45454545  0.27272727  0.09090909       0.036
   0.36363636  0.36363636  0.09090909       0.018
   0.45454545  0.36363636  0.09090909       0.036
   0.45454545  0.45454545  0.09090909       0.018
   0.18181818  0.18181818  0.18181818       0.006
   0.27272727  0.18181818  0.18181818       0.018
   0.36363636  0.18181818  0.18181818       0.018
   0.45454545  0.18181818  0.18181818       0.018
   0.27272727  0.27272727  0.18181818       0.018
   0.36363636  0.27272727  0.18181818       0.036
   0.45454545  0.27272727  0.18181818       0.036
   0.36363636  0.36363636  0.18181818       0.018
   0.45454545  0.36363636  0.18181818       0.036
   0.45454545  0.45454545  0.18181818       0.018
   0.27272727  0.27272727  0.27272727       0.006
   0.36363636  0.27272727  0.27272727       0.018
   0.45454545  0.27272727  0.27272727       0.018
   0.36363636  0.36363636  0.27272727       0.018
   0.45454545  0.36363636  0.27272727       0.036
   0.45454545  0.45454545  0.27272727       0.018
   0.36363636  0.36363636  0.36363636       0.006
   0.45454545  0.36363636  0.36363636       0.018
   0.45454545  0.45454545  0.36363636       0.018
   0.45454545  0.45454545  0.45454545       0.006
 
 position of ions in fractional coordinates (direct lattice) 
   0.00000000  0.00000000  0.00000000
   0.00000000  0.50000000  0.50000000
   0.50000000  0.00000000  0.50000000
   0.50000000  0.50000000  0.00000000
   0.25000000  0.25000000  0.25000000
   0.75000000  0.75000000  0.25000000
   0.75000000  0.25000000  0.75000000
   0.25000000  0.75000000  0.75000000
 
 position of ions in cartesian coordinates  (Angst):
   0.00000000  0.00000000  0.00000000
   0.00000000  2.71550000  2.71550000
   2.71550000  0.00000000  2.71550000
   2.71550000  2.71550000  0.00000000
   1.35775000  1.35775000  1.35775000
   4.07325000  4.07325000  1.35775000
   4.07325000  1.35775000  4.07325000
   1.35775000  4.07325000  4.07325000
 


--------------------------------------------------------------------------------------------------------


 k-point  1 :   0.0000 0.0000 0.0000  plane waves:    1021
 k-point  2 :   0.0909 0.0000 0.0000  plane waves:    1025
 k-point  3 :   0.1818 0.0000 0.0000  plane waves:    1025
 k-point  4 :   0.2727 0.0000 0.0000  plane waves:    1028
 k-point  5 :   0.3636 0.0000 0.0000  plane waves:    1032
 k-point  6 :   0.4545 0.0000 0.0000  plane waves:    1032
 k-point  7 :   0.0909 0.0909 0.0000  plane waves:    1015
 k-point  8 :   0.1818 0.0909 0.0000  plane waves:    1015
 k-point  9 :   0.2727 0.0909 0.0000  plane waves:    1030
 k-point 10 :   0.3636 0.0909 0.0000  plane waves:    1033
 k-point 11 :   0.4545 0.0909 0.0000  plane waves:    1039
 k-point 12 :   0.1818 0.1818 0.0000  plane waves:    1023
 k-point 13 :   0.2727 0.1818 0.0000  plane waves:    1027
 k-point 14 :   0.3636 0.1818 0.0000  plane waves:    1029
 k-point 15 :   0.4545 0.1818 0.0000  plane waves:    1031
 k-point 16 :   0.2727 0.2727 0.0000  plane waves:    1027
 k-point 17 :   0.3636 0.2727 0.0000  plane waves:    1031
 k-point 18 :   0.4545 0.2727 0.0000  plane waves:    1043
 k-point 19 :   0.3636 0.3636 0.0000  plane waves:    1037
 k-point 20 :   0.4545 0.3636 0.0000  plane waves:    1033
 k-point 21 :   0.4545 0.4545 0.0000  plane waves:    1036
 k-point 22 :   0.0909 0.0909 0.0909  plane waves:    1021
 k-point 23 :   0.1818 0.0909 0.0909  plane waves:    1022
 k-point 24 :   0.2727 0.0909 0.0909  plane waves:    1033
 k-point 25 :   0.3636 0.0909 0.0909  plane waves:    1033
 k-point 26 :   0.4545 0.0909 0.0909  plane waves:    1030
 k-point 27 :   0.1818 0.1818 0.0909  plane waves:    1031
 k-point 28 :   0.2727 0.1818 0.0909  plane waves:    1031
 k-point 29 :   0.3636 0.1818 0.0909  plane waves:    1035
 k-point 30 :   0.4545 0.1818 0.0909  plane waves:    1029
 k-point 31 :   0.2727 0.2727 0.0909  plane waves:    1025
 k-point 32 :   0.3636 0.2727 0.0909  plane waves:    1036
 k-point 33 :   0.4545 0.2727 0.0909  plane waves:    1026
 k-point 34 :   0.3636 0.3636 0.0909  plane waves:    1031
 k-point 35 :   0.4545 0.3636 0.0909  plane waves:    1028
 k-point 36 :   0.4545 0.4545 0.0909  plane waves:    1026
 k-point 37 :   0.1818 0.1818 0.1818  plane waves:    1030
 k-point 38 :   0.2727 0.1818 0.1818  plane waves:    1033
 k-point 39 :   0.3636 0.1818 0.1818  plane waves:    1027
 k-point 40 :   0.4545 0.1818 0.1818  plane waves:    1030
 k-point 41 :   0.2727 0.2727 0.1818  plane waves:    1032
 k-point 42 :   0.3636 0.2727 0.1818  plane waves:    1023
 k-point 43 :   0.4545 0.2727 0.1818  plane waves:    1023
 k-point 44 :   0.3636 0.3636 0.1818  plane waves:    1032
 k-point 45 :   0.4545 0.3636 0.1818  plane waves:    1033
 k-point 46 :   0.4545 0.4545 0.1818  plane waves:    1026
 k-point 47 :   0.2727 0.2727 0.2727  plane waves:    1021
 k-point 48 :   0.3636 0.2727 0.2727  plane waves:    1028
 k-point 49 :   0.4545 0.2727 0.2727  plane waves:    1026
 k-point 50 :   0.3636 0.3636 0.2727  plane waves:    1020
 k-point 51 :   0.4545 0.3636 0.2727  plane waves:    1019
 k-point 52 :   0.4545 0.4545 0.2727  plane waves:    1026
 k-point 53 :   0.3636 0.3636 0.3636  plane waves:    1033
 k-point 54 :   0.4545 0.3636 0.3636  plane waves:    1028
 k-point 55 :   0.4545 0.4545 0.3636  plane waves:    1032
 k-point 56 :   0.4545 0.4545 0.4545  plane waves:    1040

 maximum and minimum number of plane-waves per node :       138      121

 maximum number of plane-waves:      1043
 maximum index in each direction: 
   IXMAX=    6   IYMAX=    6   IZMAX=    6
   IXMIN=   -6   IYMIN=   -6   IZMIN=   -6

 NGX is ok and might be reduce to  26
 NGY is ok and might be reduce to  26
 NGZ is ok and might be reduce to  26

 total amount of memory used by VASP on root node    31725. kBytes
========================================================================

   base      :      30000. kBytes
   nonl-proj :        501. kBytes
   fftplans  :        243. kBytes
   grid      :        329. kBytes
   one-center:          3. kBytes
   wavefun   :        649. kBytes
 
     INWAV:  cpu time    0.0000: real time    0.0001
 Broyden mixing: mesh for mixing (old mesh)
   NGX = 13   NGY = 13   NGZ = 13
  (NGX  = 56   NGY  = 56   NGZ  = 56)
  gives a total of   2197 points

 initial charge density was supplied:
 charge density of overlapping atoms calculated
 number of electron      32.0000000 magnetization 
 keeping initial charge density in first step


--------------------------------------------------------------------------------------------------------


 Maximum index for augmentation-charges          125 (set IRDMAX)


--------------------------------------------------------------------------------------------------------


 First call to EWALD:  gamma=   0.326
 Maximum number of real-space cells 3x 3x 3
 Maximum number of reciprocal cells 3x 3x 3

 FEWALD executed in parallel
    FEWALD:  cpu time    0.0019: real time    0.0019


----------------------------------------- Iteration    1(   1)  ---------------------------------------


    POTLOK:  cpu time    0.0152: real time    0.0322
    SETDIJ:  cpu time    0.0020: real time    0.0022
     EDDAV:  cpu time    0.6033: real time    0.7155
       DOS:  cpu time    0.0014: real time    0.0015
    --------------------------------------------
      LOOP:  cpu time    0.6233: real time    0.7543

 eigenvalue-minimisations  :  2800
 total energy-change (2. order) : 0.2336225E+02  (-0.7008361E+03)
 number of electron      32.0000000 magnetization 
 augmentation part       32.0000000 magnetization 

 Free energy of the ion-electron system (eV)
  ---------------------------------------------------
  alpha Z        PSCENC =        13.44915721
  Ewald energy   TEWEN  =      -914.08579262
  -Hartree energ DENC   =       -44.03749844
  -exchange      EXHF   =         0.00000000
  -V(xc)+E(xc)   XCENC  =       -74.41614067
  PAW double counting   =       704.99039692     -564.24414232
  entropy T*S    EENTRO =        -0.00776786
  eigenvalues    EBANDS =        77.26414920
  atomic energy  EATOM  =       824.44989050
  Solvation  Ediel_sol  =         0.00000000
  ---------------------------------------------------
  free energy    TOTEN  =        23.36225192 eV

  energy without entropy =       23.37001978  energy(sigma->0) =       23.36613585


--------------------------------------------------------------------------------------------------------




----------------------------------------- Iteration    1(   2)  ---------------------------------------


     EDDAV:  cpu time    0.4794: real time    0.5111
       DOS:  cpu time    0.0010: real time    0.0010
    --------------------------------------------
      LOOP:  cpu time    0.4808: real time    0.5229

 eigenvalue-minimisations  :  3705
 total energy-change (2. order) :-0.6488236E+02  (-0.6183018E+02)
 number of electron      32.0000000 magnetization 
 augmentation part       32.0000000 magnetization 

 Free energy of the ion-electron system (eV)
  ---------------------------------------------------
  alpha Z        PSCENC =        13.44915721
  Ewald energy   TEWEN  =      -914.08579262
  -Hartree energ DENC   =       -44.03749844
  -exchange      EXHF   =         0.00000000
  -V(xc)+E(xc)   XCENC  =       -74.41614067
  PAW double counting   =       704.99039692     -564.24414232
  entropy T*S    EENTRO =        -0.00000006
  eigenvalues    EBANDS =        12.37402492
  atomic energy  EATOM  =       824.44989050
  Solvation  Ediel_sol  =         0.00000000
  ---------------------------------------------------
  free energy    TOTEN  =       -41.52010455 eV

  energy without entropy =      -41.52010450  energy(sigma->0) =      -41.52010452


--------------------------------------------------------------------------------------------------------




----------------------------------------- Iteration    1(   3)  ---------------------------------------


     EDDAV:  cpu time    0.4692: real time    0.4716
       DOS:  cpu time    0.0009: real time    0.0009
    CHARGE:  cpu time    0.0352: real time    0.0356
    MIXING:  cpu time    0.0010: real time    0.0011
    --------------------------------------------
      LOOP:  cpu time    0.5066: real time    0.5124

 eigenvalue-minimisations  :  3625
 total energy-change (2. order) :-0.2367802E+01  (-0.2355668E+01)
 number of electron      31.9999960 magnetization 
 augmentation part       -1.8666385 magnetization 

 Broyden mixing:
  rms(total) = 0.12447E+01    rms(broyden)= 0.12447E+01
  rms(prec ) = 0.15564E+01
  weight for this iteration     100.00

 Free energy of the ion-electron system (eV)
  ---------------------------------------------------
  alpha Z        PSCENC =        13.44915721
  Ewald energy   TEWEN  =      -914.08579262
  -Hartree energ DENC   =       -44.03749844
  -exchange      EXHF   =         0.00000000
  -V(xc)+E(xc)   XCENC  =       -74.41614067
  PAW double counting   =       704.99039692     -564.24414232
  entropy T*S    EENTRO =        -0.00000000
  eigenvalues    EBANDS =        10.00622315
  atomic energy  EATOM  =       824.44989050
  Solvation  Ediel_sol  =         0.00000000
  ---------------------------------------------------
  free energy    TOTEN  =       -43.88790627 eV

  energy without entropy =      -43.88790627  energy(sigma->0) =      -43.88790627


--------------------------------------------------------------------------------------------------------




----------------------------------------- Iteration    1(   4)  ---------------------------------------


    POTLOK:  cpu time    0.0040: real time    0.0040
    SETDIJ:  cpu time    0.0012: real time    0.0012
     EDDAV:  cpu time    0.4719: real time    0.4731
       DOS:  cpu time    0.0009: real time    0.0009
    CHARGE:  cpu time    0.0182: real time    0.0183
    MIXING:  cpu time    0.0007: real time    0.0008
    --------------------------------------------
      LOOP:  cpu time    0.4973: real time    0.5014

 eigenvalue-minimisations  :  3610
 total energy-change (2. order) : 0.4734772E+00  (-0.4029307E-01)
 number of electron      31.9999961 magnetization 
 augmentation part       -1.8454691 magnetization 

 Broyden mixing:
  rms(total) = 0.74762E+00    rms(broyden)= 0.74762E+00
  rms(prec ) = 0.93113E+00
  weight for this iteration     100.00

 eigenvalues of (default mixing * dielectric matrix)
  average eigenvalue GAMMA=   2.4968
  2.4968

 Free energy of the ion-electron system (eV)
  ---------------------------------------------------
  alpha Z        PSCENC =        13.44915721
  Ewald energy   TEWEN  =      -914.08579262
  -Hartree energ DENC   =       -49.95026746
  -exchange      EXHF   =         0.00000000
  -V(xc)+E(xc)   XCENC  =       -73.43445882
  PAW double counting   =      1931.21889145    -1790.93169329
  entropy T*S    EENTRO =        -0.00000000
  eigenvalues    EBANDS =        15.86984392
  atomic energy  EATOM  =       824.44989050
  Solvation  Ediel_sol  =         0.00000000
  ---------------------------------------------------
  free energy    TOTEN  =       -43.41442911 eV

  energy without entropy =      -43.41442910  energy(sigma->0) =      -43.41442910


--------------------------------------------------------------------------------------------------------




----------------------------------------- Iteration    1(   5)  ---------------------------------------


    POTLOK:  cpu time    0.0060: real time    0.0063
    SETDIJ:  cpu time    0.0020: real time    0.0020
     EDDAV:  cpu time    0.4374: real time    0.4385
       DOS:  cpu time    0.0010: real time    0.0010
    CHARGE:  cpu time    0.0186: real time    0.0186
    MIXING:  cpu time    0.0006: real time    0.0006
    --------------------------------------------
      LOOP:  cpu time    0.4660: real time    0.4704

 eigenvalue-minimisations  :  3305
 total energy-change (2. order) : 0.2277106E+00  (-0.5095684E-01)
 number of electron      31.9999961 magnetization 
 augmentation part       -1.8176188 magnetization 

 Broyden mixing:
  rms(total) = 0.35290E-01    rms(broyden)= 0.35287E-01
  rms(prec ) = 0.55916E-01
  weight for this iteration     100.00

 eigenvalues of (default mixing * dielectric matrix)
  average eigenvalue GAMMA=   1.9864
  1.4393  2.5335

 Free energy of the ion-electron system (eV)
  ---------------------------------------------------
  alpha Z        PSCENC =        13.44915721
  Ewald energy   TEWEN  =      -914.08579262
  -Hartree energ DENC   =       -59.83998856
  -exchange      EXHF   =         0.00000000
  -V(xc)+E(xc)   XCENC  =       -71.78762110
  PAW double counting   =      5096.17004755    -4956.49503934
  entropy T*S    EENTRO =        -0.00000026
  eigenvalues    EBANDS =        24.95262807
  atomic energy  EATOM  =       824.44989050
  Solvation  Ediel_sol  =         0.00000000
  ---------------------------------------------------
  free energy    TOTEN  =       -43.18671854 eV

  energy without entropy =      -43.18671828  energy(sigma->0) =      -43.18671841


--------------------------------------------------------------------------------------------------------




----------------------------------------- Iteration    1(   6)  ---------------------------------------


    POTLOK:  cpu time    0.0048: real time    0.0062
    SETDIJ:  cpu time    0.0021: real time    0.0021
     EDDAV:  cpu time    0.5983: real time    0.6211
       DOS:  cpu time    0.0010: real time    0.0010
    CHARGE:  cpu time    0.0186: real time    0.0186
    MIXING:  cpu time    0.0008: real time    0.0008
    --------------------------------------------
      LOOP:  cpu time    0.6260: real time    0.6530

 eigenvalue-minimisations  :  3460
 total energy-change (2. order) :-0.4254074E-02  (-0.2228334E-02)
 number of electron      31.9999961 magnetization 
 augmentation part       -1.8204578 magnetization 

 Broyden mixing:
  rms(total) = 0.16250E-01    rms(broyden)= 0.16249E-01
  rms(prec ) = 0.21768E-01
  weight for this iteration     100.00

 eigenvalues of (default mixing * dielectric matrix)
  average eigenvalue GAMMA=   1.9098
  2.4767  2.4767  0.7761

 Free energy of the ion-electron system (eV)
  ---------------------------------------------------
  alpha Z        PSCENC =        13.44915721
  Ewald energy   TEWEN  =      -914.08579262
  -Hartree energ DENC   =       -59.54653671
  -exchange      EXHF   =         0.00000000
  -V(xc)+E(xc)   XCENC  =       -71.79462878
  PAW double counting   =      5128.64922384    -4988.87710127
  entropy T*S    EENTRO =        -0.00000014
  eigenvalues    EBANDS =        24.56481535
  atomic energy  EATOM  =       824.44989050
  Solvation  Ediel_sol  =         0.00000000
  ---------------------------------------------------
  free energy    TOTEN  =       -43.19097262 eV

  energy without entropy =      -43.19097247  energy(sigma->0) =      -43.19097255


--------------------------------------------------------------------------------------------------------




----------------------------------------- Iteration    1(   7)  ---------------------------------------


    POTLOK:  cpu time    0.0039: real time    0.0039
    SETDIJ:  cpu time    0.0012: real time    0.0012
     EDDAV:  cpu time    0.5734: real time    0.5783
       DOS:  cpu time    0.0011: real time    0.0011
    CHARGE:  cpu time    0.0205: real time    0.0206
    MIXING:  cpu time    0.0006: real time    0.0006
    --------------------------------------------
      LOOP:  cpu time    0.6012: real time    0.6088

 eigenvalue-minimisations  :  3415
 total energy-change (2. order) :-0.9935634E-03  (-0.1250092E-03)
 number of electron      31.9999961 magnetization 
 augmentation part       -1.8219606 magnetization 

 Broyden mixing:
  rms(total) = 0.13065E-01    rms(broyden)= 0.13065E-01
  rms(prec ) = 0.15451E-01
  weight for this iteration     100.00

 eigenvalues of (default mixing * dielectric matrix)
  average eigenvalue GAMMA=   2.0263
  1.0687  2.5664  2.5664  1.9034

 Free energy of the ion-electron system (eV)
  ---------------------------------------------------
  alpha Z        PSCENC =        13.44915721
  Ewald energy   TEWEN  =      -914.08579262
  -Hartree energ DENC   =       -59.44456411
  -exchange      EXHF   =         0.00000000
  -V(xc)+E(xc)   XCENC  =       -71.79846236
  PAW double counting   =      5096.80484556    -4956.99738373
  entropy T*S    EENTRO =        -0.00000011
  eigenvalues    EBANDS =        24.43034348
  atomic energy  EATOM  =       824.44989050
  Solvation  Ediel_sol  =         0.00000000
  ---------------------------------------------------
  free energy    TOTEN  =       -43.19196618 eV

  energy without entropy =      -43.19196607  energy(sigma->0) =      -43.19196612


--------------------------------------------------------------------------------------------------------




----------------------------------------- Iteration    1(   8)  ---------------------------------------


    POTLOK:  cpu time    0.0067: real time    0.0071
    SETDIJ:  cpu time    0.0028: real time    0.0028
     EDDAV:  cpu time    0.5418: real time    0.5699
       DOS:  cpu time    0.0010: real time    0.0010
    CHARGE:  cpu time    0.0185: real time    0.0204
    MIXING:  cpu time    0.0007: real time    0.0007
    --------------------------------------------
      LOOP:  cpu time    0.5720: real time    0.6056

 eigenvalue-minimisations  :  3310
 total energy-change (2. order) :-0.2134843E-03  (-0.3075683E-04)
 number of electron      31.9999961 magnetization 
 augmentation part       -1.8215678 magnetization 

 Broyden mixing:
  rms(total) = 0.74400E-03    rms(broyden)= 0.74395E-03
  rms(prec ) = 0.14679E-02
  weight for this iteration     100.00

 eigenvalues of (default mixing * dielectric matrix)
  average eigenvalue GAMMA=   1.9279
  3.0985  2.3624  2.2561  0.9612  0.9612

 Free energy of the ion-electron system (eV)
  ---------------------------------------------------
  alpha Z        PSCENC =        13.44915721
  Ewald energy   TEWEN  =      -914.08579262
  -Hartree energ DENC   =       -59.60807063
  -exchange      EXHF   =         0.00000000
  -V(xc)+E(xc)   XCENC  =       -71.77721537
  PAW double counting   =      5049.13482124    -4909.33545771
  entropy T*S    EENTRO =        -0.00000011
  eigenvalues    EBANDS =        24.58048782
  atomic energy  EATOM  =       824.44989050
  Solvation  Ediel_sol  =         0.00000000
  ---------------------------------------------------
  free energy    TOTEN  =       -43.19217966 eV

  energy without entropy =      -43.19217956  energy(sigma->0) =      -43.19217961


--------------------------------------------------------------------------------------------------------




----------------------------------------- Iteration    1(   9)  ---------------------------------------


    POTLOK:  cpu time    0.0174: real time    0.0175
    SETDIJ:  cpu time    0.0011: real time    0.0012
     EDDAV:  cpu time    0.4231: real time    0.4273
       DOS:  cpu time    0.0010: real time    0.0010
    --------------------------------------------
      LOOP:  cpu time    0.4430: real time    0.4506

 eigenvalue-minimisations  :  1955
 total energy-change (2. order) :-0.1065470E-04  (-0.1101722E-05)
 number of electron      31.9999961 magnetization 
 augmentation part       -1.8215678 magnetization 

 Free energy of the ion-electron system (eV)
  ---------------------------------------------------
  alpha Z        PSCENC =        13.44915721
  Ewald energy   TEWEN  =      -914.08579262
  -Hartree energ DENC   =       -59.63281385
  -exchange      EXHF   =         0.00000000
  -V(xc)+E(xc)   XCENC  =       -71.77388408
  PAW double counting   =      5045.88000004    -4906.08115449
  entropy T*S    EENTRO =        -0.00000011
  eigenvalues    EBANDS =        24.60240708
  atomic energy  EATOM  =       824.44989050
  Solvation  Ediel_sol  =         0.00000000
  ---------------------------------------------------
  free energy    TOTEN  =       -43.19219032 eV

  energy without entropy =      -43.19219021  energy(sigma->0) =      -43.19219026


--------------------------------------------------------------------------------------------------------




 average (electrostatic) potential at core
  the test charge radii are     0.9892
  (the norm of the test charge is              1.0000)
       1 -83.2568       2 -83.2568       3 -83.2568       4 -83.2568       5 -83.2568
       6 -83.2568       7 -83.2568       8 -83.2568
 
 
 
 E-fermi :   6.1349     XC(G=0):  -9.4102     alpha+bet :-11.9779


 k-point     1 :       0.0000    0.0000    0.0000
  band No.  band energies     occupation 
      1      -6.1326      2.00000
      2      -1.9873      2.00000
      3      -1.9873      2.00000
      4      -1.9873      2.00000
      5      -1.9873      2.00000
      6      -1.9873      2.00000
      7      -1.9873      2.00000
      8       2.9796      2.00000
      9       2.9796      2.00000
     10       2.9796      2.00000
     11       2.9796      2.00000
     12       2.9796      2.00000
     13       2.9796      2.00000
     14       5.8488      1.99995
     15       5.8488      1.99995
     16       5.8488      1.99995
     17       6.5669      0.00000
     18       6.5669      0.00000
     19       6.5669      0.00000
     20       6.5669      0.00000
     21       6.5669      0.00000
     22       6.5669      0.00000
     23       8.4195      0.00000
     24       8.4195      0.00000
     25       8.4195      0.00000

 k-point     2 :       0.0909    0.0000    0.0000
  band No.  band energies     occupation 
      1      -6.0965      2.00000
      2      -2.6684      2.00000
      3      -1.9754      2.00000
      4      -1.9754      2.00000
      5      -1.9754      2.00000
      6      -1.9754      2.00000
      7      -1.2631      2.00000
      8       2.8756      2.00000
      9       2.8756      2.00000
     10       2.8756      2.00000
     11       2.8756      2.00000
     12       3.0123      2.00000
     13       3.0123      2.00000
     14       5.6128      2.00000
     15       5.6995      2.00000
     16       5.6995      2.00000
     17       6.4521      0.00001
     18       6.7624      0.00000
     19       6.7624      0.00000
     20       6.7624      0.00000
     21       6.7624      0.00000
     22       6.7797      0.00000
     23       8.3316      0.00000
     24       8.6125      0.00000
     25       8.6125      0.00000

 k-point     3 :       0.1818    0.0000    0.0000
  band No.  band energies     occupation 
      1      -5.9881      2.00000
      2      -3.3003      2.00000
      3      -1.9425      2.00000
      4      -1.9425      2.00000
      5      -1.9425      2.00000
      6      -1.9425      2.00000
      7      -0.5024      2.00000
      8       2.6279      2.00000
      9       2.6279      2.00000
     10       2.6279      2.00000
     11       2.6279      2.00000
     12       3.1102      2.00000
     13       3.1102      2.00000
     14       5.0420      2.00000
     15       5.3494      2.00000
     16       5.3494      2.00000
     17       6.4298      0.00003
     18       7.0987      0.00000
     19       7.2899      0.00000
     20       7.2899      0.00000
     21       7.2899      0.00000
     22       7.2899      0.00000
     23       8.0985      0.00000
     24       9.0962      0.00000
     25       9.0962      0.00000

 k-point     4 :       0.2727    0.0000    0.0000
  band No.  band energies     occupation 
      1      -5.8081      2.00000
      2      -3.8768      2.00000
      3      -1.8975      2.00000
      4      -1.8975      2.00000
      5      -1.8975      2.00000
      6      -1.8975      2.00000
      7       0.2851      2.00000
      8       2.3486      2.00000
      9       2.3486      2.00000
     10       2.3486      2.00000
     11       2.3486      2.00000
     12       3.2724      2.00000
     13       3.2724      2.00000
     14       4.3206      2.00000
     15       4.9294      2.00000
     16       4.9294      2.00000
     17       6.4938      0.00000
     18       7.5193      0.00000
     19       7.7843      0.00000
     20       8.0391      0.00000
     21       8.0391      0.00000
     22       8.0391      0.00000
     23       8.0391      0.00000
     24       9.7357      0.00000
     25       9.7358      0.00000

 k-point     5 :       0.3636    0.0000    0.0000
  band No.  band energies     occupation 
      1      -5.5572      2.00000
      2      -4.3937      2.00000
      3      -1.8540      2.00000
      4      -1.8540      2.00000
      5      -1.8540      2.00000
      6      -1.8540      2.00000
      7       1.0925      2.00000
      8       2.1219      2.00000
      9       2.1219      2.00000
     10       2.1219      2.00000
     11       2.1219      2.00000
     12       3.4992      2.00000
     13       3.4992      2.00000
     14       3.5375      2.00000
     15       4.5110      2.00000
     16       4.5110      2.00000
     17       6.6412      0.00000
     18       7.4481      0.00000
     19       8.0488      0.00000
     20       8.9258      0.00000
     21       8.9258      0.00000
     22       8.9258      0.00000
     23       8.9258      0.00000
     24      10.0034      0.00000
     25      10.4588      0.00000

 k-point     6 :       0.4545    0.0000    0.0000
  band No.  band energies     occupation 
      1      -5.2365      2.00000
      2      -4.8480      2.00000
      3      -1.8269      2.00000
      4      -1.8269      2.00000
      5      -1.8269      2.00000
      6      -1.8269      2.00000
      7       1.9089      2.00000
      8       1.9965      2.00000
      9       1.9965      2.00000
     10       1.9965      2.00000
     11       1.9965      2.00000
     12       2.7267      2.00000
     13       3.7837      2.00000
     14       3.7837      2.00000
     15       4.1234      2.00000
     16       4.1234      2.00000
     17       6.8559      0.00000
     18       7.1307      0.00000
     19       8.6676      0.00000
     20       9.3512      0.00000
     21       9.8682      0.00000
     22       9.8682      0.00000
     23       9.8682      0.00000
     24       9.8682      0.00000
     25      11.1809      0.00000

 k-point     7 :       0.0909    0.0909    0.0000
  band No.  band energies     occupation 
      1      -6.0604      2.00000
      2      -2.6493      2.00000
      3      -2.6493      2.00000
      4      -2.0203      2.00000
      5      -1.9091      2.00000
      6      -1.2608      2.00000
      7      -1.2608      2.00000
      8       2.5689      2.00000
      9       2.8934      2.00000
     10       2.8934      2.00000
     11       2.9282      2.00000
     12       2.9282      2.00000
     13       3.0377      2.00000
     14       5.2131      2.00000
     15       5.5512      2.00000
     16       5.8146      1.99999
     17       6.6339      0.00000
     18       6.6593      0.00000
     19       6.6593      0.00000
     20       6.9683      0.00000
     21       6.9683      0.00000
     22       7.2301      0.00000
     23       8.4943      0.00000
     24       8.5592      0.00000
     25       8.6349      0.00000

 k-point     8 :       0.1818    0.0909    0.0000
  band No.  band energies     occupation 
      1      -5.9523      2.00000
      2      -3.2758      2.00000
      3      -2.5943      2.00000
      4      -2.0532      2.00000
      5      -1.8189      2.00000
      6      -1.2593      2.00000
      7      -0.5150      2.00000
      8       2.2294      2.00000
      9       2.6079      2.00000
     10       2.7297      2.00000
     11       2.9797      2.00000
     12       2.9924      2.00000
     13       3.0519      2.00000
     14       4.6346      2.00000
     15       5.2000      2.00000
     16       5.6099      2.00000
     17       6.6459      0.00000
     18       6.8988      0.00000
     19       7.2023      0.00000
     20       7.2748      0.00000
     21       7.4748      0.00000
     22       7.9134      0.00000
     23       8.2951      0.00000
     24       8.9053      0.00000
     25       9.0208      0.00000

 k-point     9 :       0.2727    0.0909    0.0000
  band No.  band energies     occupation 
      1      -5.7728      2.00000
      2      -3.8490      2.00000
      3      -2.5097      2.00000
      4      -2.0865      2.00000
      5      -1.7085      2.00000
      6      -1.2687      2.00000
      7       0.2513      2.00000
      8       1.9427      2.00000
      9       2.2789      2.00000
     10       2.5187      2.00000
     11       2.8029      2.00000
     12       3.1331      2.00000
     13       3.2459      2.00000
     14       3.9851      2.00000
     15       4.7796      2.00000
     16       5.1877      2.00000
     17       6.7118      0.00000
     18       7.4828      0.00000
     19       7.6817      0.00000
     20       7.9635      0.00000
     21       7.9890      0.00000
     22       8.2037      0.00000
     23       8.7453      0.00000
     24       9.4141      0.00000
     25       9.6688      0.00000

 k-point    10 :       0.3636    0.0909    0.0000
  band No.  band energies     occupation 
      1      -5.5225      2.00000
      2      -4.3635      2.00000
      3      -2.4066      2.00000
      4      -2.1341      2.00000
      5      -1.5868      2.00000
      6      -1.3024      2.00000
      7       1.0269      2.00000
      8       1.7599      2.00000
      9       1.9890      2.00000
     10       2.3724      2.00000
     11       2.5813      2.00000
     12       3.2891      2.00000
     13       3.3519      2.00000
     14       3.5115      2.00000
     15       4.3594      2.00000
     16       4.7083      2.00000
     17       6.8576      0.00000
     18       7.6600      0.00000
     19       8.1920      0.00000
     20       8.2865      0.00000
     21       8.8613      0.00000
     22       9.0710      0.00000
     23       9.6745      0.00000
     24       9.8904      0.00000
     25      10.4315      0.00000

 k-point    11 :       0.4545    0.0909    0.0000
  band No.  band energies     occupation 
      1      -5.2029      2.00000
      2      -4.8158      2.00000
      3      -2.3000      2.00000
      4      -2.2054      2.00000
      5      -1.4682      2.00000
      6      -1.3695      2.00000
      7       1.7068      2.00000
      8       1.7878      2.00000
      9       1.7995      2.00000
     10       2.3332      2.00000
     11       2.4095      2.00000
     12       2.5574      2.00000
     13       3.6337      2.00000
     14       3.8477      2.00000
     15       3.9724      2.00000
     16       4.2502      2.00000
     17       7.0718      0.00000
     18       7.3454      0.00000
     19       8.7961      0.00000
     20       9.2148      0.00000
     21       9.4556      0.00000
     22       9.8387      0.00000
     23       9.8777      0.00000
     24      10.5030      0.00000
     25      10.5643      0.00000

 k-point    12 :       0.1818    0.1818    0.0000
  band No.  band energies     occupation 
      1      -5.8451      2.00000
      2      -3.2050      2.00000
      3      -3.2050      2.00000
      4      -2.1640      2.00000
      5      -1.6748      2.00000
      6      -0.5579      2.00000
      7      -0.5579      2.00000
      8       1.8824      2.00000
      9       2.6669      2.00000
     10       2.6669      2.00000
     11       2.9179      2.00000
     12       2.9179      2.00000
     13       3.2100      2.00000
     14       4.0509      2.00000
     15       4.8463      2.00000
     16       5.7028      2.00000
     17       6.8326      0.00000
     18       7.1976      0.00000
     19       7.1976      0.00000
     20       7.7514      0.00000
     21       7.7514      0.00000
     22       8.6851      0.00000
     23       8.7180      0.00000
     24       8.8088      0.00000
     25       8.8921      0.00000

 k-point    13 :       0.2727    0.1818    0.0000
  band No.  band energies     occupation 
      1      -5.6669      2.00000
      2      -3.7668      2.00000
      3      -3.0921      2.00000
      4      -2.2881      2.00000
      5      -1.5070      2.00000
      6      -0.6393      2.00000
      7       0.1476      2.00000
      8       1.6386      2.00000
      9       2.3013      2.00000
     10       2.7937      2.00000
     11       2.8009      2.00000
     12       3.1941      2.00000
     13       3.2199      2.00000
     14       3.4379      2.00000
     15       4.4227      2.00000
     16       5.4650      2.00000
     17       7.1564      0.00000
     18       7.2719      0.00000
     19       7.9660      0.00000
     20       8.1287      0.00000
     21       8.4545      0.00000
     22       8.5050      0.00000
     23       9.0444      0.00000
     24       9.4909      0.00000
     25       9.5657      0.00000

 k-point    14 :       0.3636    0.1818    0.0000
  band No.  band energies     occupation 
      1      -5.4190      2.00000
      2      -4.2733      2.00000
      3      -2.9450      2.00000
      4      -2.4338      2.00000
      5      -1.3197      2.00000
      6      -0.7653      2.00000
      7       0.8436      2.00000
      8       1.5258      2.00000
      9       1.9652      2.00000
     10       2.7422      2.00000
     11       2.8113      2.00000
     12       3.0063      2.00000
     13       3.0859      2.00000
     14       3.5582      2.00000
     15       3.9992      2.00000
     16       5.0190      2.00000
     17       7.4191      0.00000
     18       7.7976      0.00000
     19       8.1955      0.00000
     20       8.6061      0.00000
     21       8.8707      0.00000
     22       9.2971      0.00000
     23       9.4923      0.00000
     24      10.2535      0.00000
     25      10.5094      0.00000

 k-point    15 :       0.4545    0.1818    0.0000
  band No.  band energies     occupation 
      1      -5.1025      2.00000
      2      -4.7198      2.00000
      3      -2.7762      2.00000
      4      -2.6004      2.00000
      5      -1.1227      2.00000
      6      -0.9319      2.00000
      7       1.5200      2.00000
      8       1.5510      2.00000
      9       1.7043      2.00000
     10       2.1754      2.00000
     11       2.7866      2.00000
     12       2.9152      2.00000
     13       3.2789      2.00000
     14       3.6138      2.00000
     15       4.0017      2.00000
     16       4.5052      2.00000
     17       7.6312      0.00000
     18       7.8974      0.00000
     19       8.6402      0.00000
     20       9.1719      0.00000
     21       9.5654      0.00000
     22       9.7184      0.00000
     23       9.8593      0.00000
     24      10.3408      0.00000
     25      10.4343      0.00000

 k-point    16 :       0.2727    0.2727    0.0000
  band No.  band energies     occupation 
      1      -5.4914      2.00000
      2      -3.6335      2.00000
      3      -3.6335      2.00000
      4      -2.5103      2.00000
      5      -1.2849      2.00000
      6      -0.0229      2.00000
      7      -0.0229      2.00000
      8       1.4642      2.00000
      9       2.4095      2.00000
     10       2.4095      2.00000
     11       2.8615      2.00000
     12       3.1730      2.00000
     13       3.1730      2.00000
     14       3.4880      2.00000
     15       3.9937      2.00000
     16       5.4858      2.00000
     17       7.1589      0.00000
     18       8.0429      0.00000
     19       8.0429      0.00000
     20       8.8009      0.00000
     21       8.8009      0.00000
     22       8.9140      0.00000
     23       9.0906      0.00000
     24       9.3542      0.00000
     25      10.4702      0.00000

 k-point    17 :       0.3636    0.2727    0.0000
  band No.  band energies     occupation 
      1      -5.2472      2.00000
      2      -4.1253      2.00000
      3      -3.4548      2.00000
      4      -2.7515      2.00000
      5      -1.0409      2.00000
      6      -0.2487      2.00000
      7       0.5734      2.00000
      8       1.4288      2.00000
      9       2.0400      2.00000
     10       2.2882      2.00000
     11       2.5974      2.00000
     12       3.2172      2.00000
     13       3.5461      2.00000
     14       3.5711      2.00000
     15       3.6456      2.00000
     16       5.2065      2.00000
     17       7.5310      0.00000
     18       8.1877      0.00000
     19       8.9144      0.00000
     20       8.9455      0.00000
     21       9.0776      0.00000
     22       9.2434      0.00000
     23       9.5909      0.00000
     24      10.0425      0.00000
     25      10.1838      0.00000

 k-point    18 :       0.4545    0.2727    0.0000
  band No.  band energies     occupation 
      1      -4.9364      2.00000
      2      -4.5614      2.00000
      3      -3.2394      2.00000
      4      -2.9999      2.00000
      5      -0.7782      2.00000
      6      -0.5080      2.00000
      7       1.1512      2.00000
      8       1.5247      2.00000
      9       1.7191      2.00000
     10       1.7359      2.00000
     11       2.8587      2.00000
     12       3.1861      2.00000
     13       3.3238      2.00000
     14       3.4579      2.00000
     15       4.1826      2.00000
     16       4.7312      2.00000
     17       8.2106      0.00000
     18       8.3894      0.00000
     19       8.6383      0.00000
     20       9.0795      0.00000
     21       9.4511      0.00000
     22       9.7464      0.00000
     23       9.9323      0.00000
     24      10.0080      0.00000
     25      10.4355      0.00000

 k-point    19 :       0.3636    0.3636    0.0000
  band No.  band energies     occupation 
      1      -5.0090      2.00000
      2      -3.9237      2.00000
      3      -3.9237      2.00000
      4      -3.0747      2.00000
      5      -0.7424      2.00000
      6       0.2523      2.00000
      7       0.2523      2.00000
      8       1.4635      2.00000
      9       1.7625      2.00000
     10       2.2050      2.00000
     11       2.2050      2.00000
     12       3.1485      2.00000
     13       3.7674      2.00000
     14       3.7674      2.00000
     15       3.8548      2.00000
     16       5.1538      2.00000
     17       7.5826      0.00000
     18       8.8506      0.00000
     19       9.0809      0.00000
     20       9.0809      0.00000
     21       9.5596      0.00000
     22       9.5596      0.00000
     23       9.6117      0.00000
     24       9.9231      0.00000
     25      10.0698      0.00000

 k-point    20 :       0.4545    0.3636    0.0000
  band No.  band energies     occupation 
      1      -4.7066      2.00000
      2      -4.3431      2.00000
      3      -3.6747      2.00000
      4      -3.3875      2.00000
      5      -0.4226      2.00000
      6      -0.0870      2.00000
      7       0.7483      2.00000
      8       1.2493      2.00000
      9       1.6165      2.00000
     10       1.8700      2.00000
     11       2.4511      2.00000
     12       2.7695      2.00000
     13       3.8900      2.00000
     14       3.9512      2.00000
     15       4.3364      2.00000
     16       4.8357      2.00000
     17       7.9922      0.00000
     18       8.6902      0.00000
     19       8.8916      0.00000
     20       9.1582      0.00000
     21       9.2687      0.00000
     22       9.4889      0.00000
     23      10.0582      0.00000
     24      10.5388      0.00000
     25      10.6917      0.00000

 k-point    21 :       0.4545    0.4545    0.0000
  band No.  band energies     occupation 
      1      -4.4162      2.00000
      2      -4.0700      2.00000
      3      -4.0700      2.00000
      4      -3.7484      2.00000
      5      -0.0495      2.00000
      6       0.3427      2.00000
      7       0.3427      2.00000
      8       0.7877      2.00000
      9       1.8113      2.00000
     10       2.0948      2.00000
     11       2.0948      2.00000
     12       2.3991      2.00000
     13       4.2844      2.00000
     14       4.3977      2.00000
     15       4.3977      2.00000
     16       4.7352      2.00000
     17       8.0699      0.00000
     18       8.4825      0.00000
     19       8.4825      0.00000
     20       8.5383      0.00000
     21      10.2189      0.00000
     22      10.2189      0.00000
     23      10.2749      0.00000
     24      10.6219      0.00000
     25      11.0814      0.00000

 k-point    22 :       0.0909    0.0909    0.0909
  band No.  band energies     occupation 
      1      -6.0244      2.00000
      2      -2.6333      2.00000
      3      -2.6333      2.00000
      4      -2.6333      2.00000
      5      -1.2596      2.00000
      6      -1.2596      2.00000
      7      -1.2596      2.00000
      8       2.6101      2.00000
      9       2.6101      2.00000
     10       2.6101      2.00000
     11       3.0701      2.00000
     12       3.0701      2.00000
     13       3.0701      2.00000
     14       4.8563      2.00000
     15       5.6785      2.00000
     16       5.6785      2.00000
     17       6.6494      0.00000
     18       6.6494      0.00000
     19       6.6494      0.00000
     20       7.3061      0.00000
     21       7.3061      0.00000
     22       7.3061      0.00000
     23       8.4470      0.00000
     24       8.6682      0.00000
     25       8.6682      0.00000

 k-point    23 :       0.1818    0.0909    0.0909
  band No.  band energies     occupation 
      1      -5.9166      2.00000
      2      -3.2533      2.00000
      3      -2.5883      2.00000
      4      -2.5883      2.00000
      5      -1.2580      2.00000
      6      -1.2580      2.00000
      7      -0.5317      2.00000
      8       2.2794      2.00000
      9       2.2794      2.00000
     10       2.7355      2.00000
     11       3.0290      2.00000
     12       3.0290      2.00000
     13       3.1669      2.00000
     14       4.2880      2.00000
     15       5.3497      2.00000
     16       5.5497      2.00000
     17       6.7045      0.00000
     18       6.9284      0.00000
     19       6.9284      0.00000
     20       7.5383      0.00000
     21       7.9742      0.00000
     22       7.9742      0.00000
     23       8.3925      0.00000
     24       8.7148      0.00000
     25       9.1089      0.00000

 k-point    24 :       0.2727    0.0909    0.0909
  band No.  band energies     occupation 
      1      -5.7375      2.00000
      2      -3.8222      2.00000
      3      -2.5247      2.00000
      4      -2.5247      2.00000
      5      -1.2616      2.00000
      6      -1.2616      2.00000
      7       0.2093      2.00000
      8       1.9971      2.00000
      9       1.9971      2.00000
     10       2.8547      2.00000
     11       2.8547      2.00000
     12       2.9456      2.00000
     13       3.3278      2.00000
     14       3.6739      2.00000
     15       4.9487      2.00000
     16       5.1360      2.00000
     17       6.8171      0.00000
     18       7.5175      0.00000
     19       7.5175      0.00000
     20       7.8975      0.00000
     21       8.1375      0.00000
     22       8.7983      0.00000
     23       8.7983      0.00000
     24       9.1646      0.00000
     25       9.6945      0.00000

 k-point    25 :       0.3636    0.0909    0.0909
  band No.  band energies     occupation 
      1      -5.4880      2.00000
      2      -4.3337      2.00000
      3      -2.4601      2.00000
      4      -2.4601      2.00000
      5      -1.2720      2.00000
      6      -1.2720      2.00000
      7       0.9489      2.00000
      8       1.8047      2.00000
      9       1.8047      2.00000
     10       2.6634      2.00000
     11       2.6634      2.00000
     12       3.0340      2.00000
     13       3.2429      2.00000
     14       3.5505      2.00000
     15       4.5433      2.00000
     16       4.6135      2.00000
     17       6.9898      0.00000
     18       7.8187      0.00000
     19       8.3187      0.00000
     20       8.3187      0.00000
     21       8.3750      0.00000
     22       9.7196      0.00000
     23       9.7196      0.00000
     24       9.7322      0.00000
     25      10.3575      0.00000

 k-point    26 :       0.4545    0.0909    0.0909
  band No.  band energies     occupation 
      1      -5.1696      2.00000
      2      -4.7839      2.00000
      3      -2.4183      2.00000
      4      -2.4183      2.00000
      5      -1.2826      2.00000
      6      -1.2826      2.00000
      7       1.6718      2.00000
      8       1.7117      2.00000
      9       1.7117      2.00000
     10       2.3673      2.00000
     11       2.5433      2.00000
     12       2.5433      2.00000
     13       3.6272      2.00000
     14       3.8313      2.00000
     15       4.0916      2.00000
     16       4.1646      2.00000
     17       7.2220      0.00000
     18       7.5042      0.00000
     19       8.9522      0.00000
     20       9.2422      0.00000
     21       9.2422      0.00000
     22       9.5752      0.00000
     23      10.2367      0.00000
     24      10.2367      0.00000
     25      10.7613      0.00000

 k-point    27 :       0.1818    0.1818    0.0909
  band No.  band energies     occupation 
      1      -5.8097      2.00000
      2      -3.1872      2.00000
      3      -3.1872      2.00000
      4      -2.5766      2.00000
      5      -1.2517      2.00000
      6      -0.5847      2.00000
      7      -0.5847      2.00000
      8       1.9520      2.00000
      9       2.4286      2.00000
     10       2.4286      2.00000
     11       3.1405      2.00000
     12       3.1405      2.00000
     13       3.2406      2.00000
     14       3.7245      2.00000
     15       5.0953      2.00000
     16       5.5988      2.00000
     17       6.8737      0.00000
     18       7.0216      0.00000
     19       7.0216      0.00000
     20       8.1561      0.00000
     21       8.1561      0.00000
     22       8.4242      0.00000
     23       8.7336      0.00000
     24       8.8364      0.00000
     25       9.1352      0.00000

 k-point    28 :       0.2727    0.1818    0.0909
  band No.  band energies     occupation 
      1      -5.6322      2.00000
      2      -3.7428      2.00000
      3      -3.0839      2.00000
      4      -2.5768      2.00000
      5      -1.2310      2.00000
      6      -0.6778      2.00000
      7       0.0856      2.00000
      8       1.7289      2.00000
      9       2.1546      2.00000
     10       2.6746      2.00000
     11       3.0147      2.00000
     12       3.1335      2.00000
     13       3.2545      2.00000
     14       3.3299      2.00000
     15       4.6870      2.00000
     16       5.3761      2.00000
     17       7.1736      0.00000
     18       7.1985      0.00000
     19       7.6205      0.00000
     20       8.4505      0.00000
     21       8.4549      0.00000
     22       8.9237      0.00000
     23       8.9566      0.00000
     24       9.5802      0.00000
     25       9.6111      0.00000

 k-point    29 :       0.3636    0.1818    0.0909
  band No.  band energies     occupation 
      1      -5.3851      2.00000
      2      -4.2453      2.00000
[...]
     20       8.1675      0.00000
     21       9.2103      0.00000
     22       9.4027      0.00000
     23       9.4027      0.00000
     24       9.4081      0.00000
     25      10.7189      0.00000

 k-point    45 :       0.4545    0.3636    0.1818
  band No.  band energies     occupation 
      1      -4.6781      2.00000
      2      -4.3371      2.00000
      3      -3.7485      2.00000
      4      -3.5365      2.00000
      5      -0.9137      2.00000
      6      -0.6783      2.00000
      7       0.0004      2.00000
      8       0.4139      2.00000
      9       2.1873      2.00000
     10       2.4057      2.00000
     11       3.0317      2.00000
     12       3.4315      2.00000
     13       3.8453      2.00000
     14       3.8900      2.00000
     15       4.1858      2.00000
     16       4.6142      2.00000
     17       7.9153      0.00000
     18       8.2180      0.00000
     19       8.3365      0.00000
     20       8.5311      0.00000
     21       8.9841      0.00000
     22       9.0210      0.00000
     23       9.0494      0.00000
     24       9.8205      0.00000
     25       9.8412      0.00000

 k-point    46 :       0.4545    0.4545    0.1818
  band No.  band energies     occupation 
      1      -4.4087      2.00000
      2      -4.0945      2.00000
      3      -4.0945      2.00000
      4      -3.8208      2.00000
      5      -0.6807      2.00000
      6      -0.3709      2.00000
      7      -0.3709      2.00000
      8      -0.0045      2.00000
      9       2.4493      2.00000
     10       2.7385      2.00000
     11       2.7385      2.00000
     12       3.0823      2.00000
     13       4.1833      2.00000
     14       4.2751      2.00000
     15       4.2751      2.00000
     16       4.5660      2.00000
     17       7.9425      0.00000
     18       8.1595      0.00000
     19       8.2457      0.00000
     20       8.2457      0.00000
     21       9.2438      0.00000
     22       9.2438      0.00000
     23       9.4942      0.00000
     24       9.5812      0.00000
     25       9.9534      0.00000

 k-point    47 :       0.2727    0.2727    0.2727
  band No.  band energies     occupation 
      1      -5.2621      2.00000
      2      -3.5943      2.00000
      3      -3.5943      2.00000
      4      -3.5943      2.00000
      5      -0.7203      2.00000
      6      -0.7203      2.00000
      7      -0.7203      2.00000
      8       1.3563      2.00000
      9       2.3247      2.00000
     10       2.3247      2.00000
     11       2.3247      2.00000
     12       3.5918      2.00000
     13       3.5918      2.00000
     14       3.5918      2.00000
     15       4.8333      2.00000
     16       4.8333      2.00000
     17       7.3554      0.00000
     18       7.3554      0.00000
     19       7.3554      0.00000
     20       7.5461      0.00000
     21       9.2032      0.00000
     22       9.2032      0.00000
     23      10.6103      0.00000
     24      10.6103      0.00000
     25      10.6103      0.00000

 k-point    48 :       0.3636    0.2727    0.2727
  band No.  band energies     occupation 
      1      -5.0335      2.00000
      2      -4.0139      2.00000
      3      -3.5210      2.00000
      4      -3.5210      2.00000
      5      -0.9403      2.00000
      6      -0.9403      2.00000
      7      -0.3879      2.00000
      8       0.8534      2.00000
      9       2.3954      2.00000
     10       2.3954      2.00000
     11       2.9306      2.00000
     12       3.6753      2.00000
     13       3.6753      2.00000
     14       3.7792      2.00000
     15       4.5570      2.00000
     16       4.6862      2.00000
     17       7.5999      0.00000
     18       7.6413      0.00000
     19       7.6860      0.00000
     20       7.6860      0.00000
     21       9.0243      0.00000
     22       9.4555      0.00000
     23      10.0187      0.00000
     24      10.0187      0.00000
     25      10.0822      0.00000

 k-point    49 :       0.4545    0.2727    0.2727
  band No.  band energies     occupation 
      1      -4.7452      2.00000
      2      -4.4025      2.00000
      3      -3.4731      2.00000
      4      -3.4731      2.00000
      5      -1.0685      2.00000
      6      -1.0685      2.00000
      7      -0.0189      2.00000
      8       0.3938      2.00000
      9       2.4496      2.00000
     10       2.4496      2.00000
     11       3.5796      2.00000
     12       3.6820      2.00000
     13       3.6820      2.00000
     14       4.0098      2.00000
     15       4.2026      2.00000
     16       4.2740      2.00000
     17       7.8391      0.00000
     18       7.8880      0.00000
     19       8.2926      0.00000
     20       8.2926      0.00000
     21       8.9841      0.00000
     22       9.1271      0.00000
     23       9.1271      0.00000
     24       9.3924      0.00000
     25       9.7799      0.00000

 k-point    50 :       0.3636    0.3636    0.2727
  band No.  band energies     occupation 
      1      -4.8155      2.00000
      2      -3.8773      2.00000
      3      -3.8773      2.00000
      4      -3.5417      2.00000
      5      -1.0844      2.00000
      6      -0.7160      2.00000
      7      -0.7160      2.00000
      8       0.3744      2.00000
      9       2.5992      2.00000
     10       2.9885      2.00000
     11       2.9885      2.00000
     12       3.8952      2.00000
     13       3.8952      2.00000
     14       3.9084      2.00000
     15       4.3346      2.00000
     16       4.7600      2.00000
     17       7.5502      0.00000
     18       7.6968      0.00000
     19       7.8887      0.00000
     20       7.8887      0.00000
     21       9.1349      0.00000
     22       9.2941      0.00000
     23       9.4277      0.00000
     24       9.4277      0.00000
     25       9.9578      0.00000

 k-point    51 :       0.4545    0.3636    0.2727
  band No.  band energies     occupation 
      1      -4.5436      2.00000
      2      -4.2261      2.00000
      3      -3.7347      2.00000
      4      -3.6143      2.00000
      5      -1.0955      2.00000
      6      -0.9648      2.00000
      7      -0.4185      2.00000
      8      -0.0526      2.00000
      9       2.7881      2.00000
     10       2.9315      2.00000
     11       3.5476      2.00000
     12       3.9789      2.00000
     13       3.9942      2.00000
     14       4.0032      2.00000
     15       4.1918      2.00000
     16       4.5408      2.00000
     17       7.7741      0.00000
     18       7.9822      0.00000
     19       8.0042      0.00000
     20       8.3063      0.00000
     21       8.8382      0.00000
     22       8.9951      0.00000
     23       9.0122      0.00000
     24       9.2826      0.00000
     25       9.5146      0.00000

 k-point    52 :       0.4545    0.4545    0.2727
  band No.  band energies     occupation 
      1      -4.2974      2.00000
      2      -4.0204      2.00000
      3      -4.0204      2.00000
      4      -3.8067      2.00000
      5      -0.9841      2.00000
      6      -0.7495      2.00000
      7      -0.7495      2.00000
      8      -0.4398      2.00000
      9       3.0869      2.00000
     10       3.3478      2.00000
     11       3.3478      2.00000
     12       3.6976      2.00000
     13       4.2505      2.00000
     14       4.3162      2.00000
     15       4.3162      2.00000
     16       4.5571      2.00000
     17       7.8141      0.00000
     18       7.9337      0.00000
     19       8.0352      0.00000
     20       8.0352      0.00000
     21       8.9735      0.00000
     22       8.9735      0.00000
     23       9.2088      0.00000
     24       9.2932      0.00000
     25       9.3359      0.00000

 k-point    53 :       0.3636    0.3636    0.3636
  band No.  band energies     occupation 
      1      -4.6132      2.00000
      2      -3.8023      2.00000
      3      -3.8023      2.00000
      4      -3.8023      2.00000
      5      -0.9919      2.00000
      6      -0.9919      2.00000
      7      -0.9919      2.00000
      8      -0.0809      2.00000
      9       3.2615      2.00000
     10       3.2615      2.00000
     11       3.2615      2.00000
     12       4.0566      2.00000
     13       4.0566      2.00000
     14       4.0566      2.00000
     15       4.6019      2.00000
     16       4.6019      2.00000
     17       7.2881      0.00000
     18       7.8239      0.00000
     19       7.8239      0.00000
     20       7.8239      0.00000
     21       9.1579      0.00000
     22       9.1579      0.00000
     23       9.3034      0.00000
     24       9.3034      0.00000
     25       9.3034      0.00000

 k-point    54 :       0.4545    0.3636    0.3636
  band No.  band energies     occupation 
      1      -4.3661      2.00000
      2      -4.0881      2.00000
      3      -3.7534      2.00000
      4      -3.7534      2.00000
      5      -1.1461      2.00000
      6      -1.1461      2.00000
      7      -0.7816      2.00000
      8      -0.4722      2.00000
      9       3.4013      2.00000
     10       3.4013      2.00000
     11       3.9069      2.00000
     12       4.1587      2.00000
     13       4.1587      2.00000
     14       4.2318      2.00000
     15       4.4192      2.00000
     16       4.4215      2.00000
     17       7.4253      0.00000
     18       7.7442      0.00000
     19       7.9524      0.00000
     20       7.9524      0.00000
     21       8.9388      0.00000
     22       8.9388      0.00000
     23       8.9568      0.00000
     24       8.9973      0.00000
     25       9.2948      0.00000

 k-point    55 :       0.4545    0.4545    0.3636
  band No.  band energies     occupation 
      1      -4.1592      2.00000
      2      -3.9448      2.00000
      3      -3.9448      2.00000
      4      -3.8246      2.00000
      5      -1.1753      2.00000
      6      -1.0458      2.00000
      7      -1.0458      2.00000
      8      -0.8121      2.00000
      9       3.7318      2.00000
     10       3.9151      2.00000
     11       3.9151      2.00000
     12       4.2344      2.00000
     13       4.3316      2.00000
     14       4.3597      2.00000
     15       4.3597      2.00000
     16       4.5311      2.00000
     17       7.3772      0.00000
     18       7.6470      0.00000
     19       7.6470      0.00000
     20       7.7153      0.00000
     21       8.9440      0.00000
     22       8.9440      0.00000
     23       9.0161      0.00000
     24       9.1042      0.00000
     25       9.1106      0.00000

 k-point    56 :       0.4545    0.4545    0.4545
  band No.  band energies     occupation 
      1      -4.0153      2.00000
      2      -3.8954      2.00000
      3      -3.8954      2.00000
      4      -3.8954      2.00000
      5      -1.2093      2.00000
      6      -1.2093      2.00000
      7      -1.2093      2.00000
      8      -1.0804      2.00000
      9       4.2664      2.00000
     10       4.2664      2.00000
     11       4.2664      2.00000
     12       4.4128      2.00000
     13       4.4128      2.00000
     14       4.4128      2.00000
     15       4.4814      2.00000
     16       4.4814      2.00000
     17       7.1514      0.00000
     18       7.3351      0.00000
     19       7.3351      0.00000
     20       7.3351      0.00000
     21       8.9907      0.00000
     22       8.9907      0.00000
     23       8.9907      0.00000
     24       9.0474      0.00000
     25       9.0474      0.00000


--------------------------------------------------------------------------------------------------------


 soft charge-density along one line, spin component           1
         0         1         2         3         4         5         6         7         8         9
 total charge-density along one line
 
 pseudopotential strength for first ion, spin component:           1
 18.439  25.725  -0.000   0.000  -0.000  -0.000   0.000  -0.000
 25.725  35.896  -0.000   0.000  -0.000  -0.000   0.000  -0.000
 -0.000  -0.000   4.182   0.000   0.000   7.792   0.000   0.000
  0.000   0.000   0.000   4.182  -0.000   0.000   7.792  -0.000
 -0.000  -0.000   0.000  -0.000   4.182   0.000  -0.000   7.792
 -0.000  -0.000   7.792   0.000   0.000  14.531   0.000   0.000
  0.000   0.000   0.000   7.792  -0.000   0.000  14.531  -0.000
 -0.000  -0.000   0.000  -0.000   7.792   0.000  -0.000  14.531
 total augmentation occupancy for first ion, spin component:           1
  6.698  -2.687   0.000   0.000   0.000  -0.000  -0.000  -0.000
 -2.687   1.178   0.000  -0.000   0.000   0.000  -0.000  -0.000
  0.000  -0.000   3.834  -0.000   0.000  -1.012   0.000   0.000
  0.000  -0.000   0.000   3.834  -0.000   0.000  -1.012   0.000
  0.000   0.000  -0.000  -0.000   3.834  -0.000  -0.000  -1.012
 -0.000   0.000  -1.012   0.000   0.000   0.273  -0.000  -0.000
  0.000  -0.000   0.000  -1.012   0.000   0.000   0.273  -0.000
  0.000  -0.000  -0.000  -0.000  -1.012   0.000  -0.000   0.273


------------------------ aborting loop because EDIFF is reached ----------------------------------------


    CHARGE:  cpu time    0.0181: real time    0.0181
    FORLOC:  cpu time    0.0003: real time    0.0003
    FORNL :  cpu time    0.0270: real time    0.0270
    STRESS:  cpu time    0.0580: real time    0.0582
    FORCOR:  cpu time    0.0038: real time    0.0039
    FORHAR:  cpu time    0.0011: real time    0.0011
    MIXING:  cpu time    0.0005: real time    0.0005
    OFIELD:  cpu time    0.0000: real time    0.0000

  FORCE on cell =-STRESS in cart. coord.  units (eV):
  Direction    XX          YY          ZZ          XY          YZ          ZX
  --------------------------------------------------------------------------------------
  Alpha Z    13.19982    13.19982    13.19982
  Ewald    -302.80112  -302.80112  -302.80112    -0.00000    -0.00000    -0.00000
  Hartree    20.17106    20.17106    20.17106    -0.00000    -0.00000    -0.00000
  E(xc)    -101.16794  -101.16794  -101.16794    -0.00000    -0.00000     0.00000
  Local    -118.85143  -118.85143  -118.85143     0.00000    -0.00000     0.00000
  n-local   311.06821   314.55427   307.97549    -2.97225    -2.33512    -1.51863
  augment   -46.21808   -46.21808   -46.21808     0.00000    -0.00000     0.00000
  Kinetic   217.29728   229.06223   227.12701    -3.72295    -5.27469    -2.55570
  Fock        0.00000     0.00000     0.00000     0.00000     0.00000     0.00000
  -------------------------------------------------------------------------------------
  Total       0.02715     0.02715     0.02715    -0.00000    -0.00000    -0.00000
  in kB       0.26647     0.26647     0.26647    -0.00000    -0.00000    -0.00000
  external pressure =        0.27 kB  Pullay stress =        0.00 kB


 VOLUME and BASIS-vectors are now :
 -----------------------------------------------------------------------------
  energy-cutoff  :      200.00
  volume of cell :      163.22
      direct lattice vectors                 reciprocal lattice vectors
     5.464982426 -0.000000000 -0.000000000     0.182983205  0.000000000  0.000000000
    -0.000000000  5.464982426  0.000000000     0.000000000  0.182983205 -0.000000000
    -0.000000000  0.000000000  5.464982426     0.000000000 -0.000000000  0.182983205

  length of vectors
     5.464982426  5.464982426  5.464982426     0.182983205  0.182983205  0.182983205


 FORCES acting on ions
    electron-ion (+dipol)            ewald-force                    non-local-force                 convergence-correction
 -----------------------------------------------------------------------------------------------
   -.687E-14 -.248E-14 0.358E-13   0.711E-14 0.000E+00 0.711E-14   -.408E-16 0.308E-16 -.252E-16   -.470E-14 -.667E-15 -.487E-14
   -.893E-14 -.144E-13 0.254E-13   0.711E-14 0.000E+00 0.711E-14   -.156E-16 0.607E-17 -.867E-17   -.482E-14 -.792E-15 -.129E-13
   -.128E-13 -.305E-14 0.382E-12   0.711E-14 0.000E+00 0.711E-14   -.243E-16 0.121E-16 -.278E-16   0.162E-14 -.415E-15 -.127E-13
   -.154E-14 0.128E-12 0.209E-12   0.711E-14 0.000E+00 0.711E-14   -.607E-17 0.650E-17 -.356E-16   0.151E-14 -.228E-15 -.466E-14
   -.572E-14 0.112E-12 0.254E-13   -.103E-13 0.684E-15 -.758E-14   0.607E-17 0.130E-17 0.477E-16   -.204E-14 0.358E-14 -.139E-13
   -.223E-13 -.317E-12 0.426E-12   -.108E-13 0.586E-15 -.757E-14   0.338E-16 -.308E-16 0.269E-16   -.244E-14 0.741E-15 -.141E-13
   -.233E-13 -.106E-12 0.176E-12   -.982E-14 -.492E-15 -.656E-14   0.252E-16 -.169E-16 0.139E-16   -.225E-14 0.340E-14 0.216E-14
   -.264E-14 0.805E-13 0.197E-13   -.116E-13 -.590E-15 -.656E-14   0.147E-16 -.152E-16 0.191E-16   -.190E-14 0.915E-15 0.255E-14
 -----------------------------------------------------------------------------------------------
   -.842E-13 -.122E-12 0.130E-11   -.142E-13 0.189E-15 0.153E-15   -.694E-17 -.607E-17 0.104E-16   -.150E-13 0.654E-14 -.584E-13
 
 
 POSITION                                       TOTAL-FORCE (eV/Angst)
 -----------------------------------------------------------------------------------
      0.00000      0.00000      0.00000        -0.000000     -0.000000     -0.000000
     -0.00000      2.73249      2.73249         0.000000     -0.000000     -0.000000
      2.73249      0.00000      2.73249         0.000000      0.000000     -0.000000
      2.73249      2.73249      0.00000        -0.000000     -0.000000     -0.000000
      1.36625      1.36625      1.36625         0.000000      0.000000      0.000000
      4.09874      4.09874      1.36625         0.000000     -0.000000      0.000000
      4.09874      1.36625      4.09874         0.000000      0.000000      0.000000
      1.36625      4.09874      4.09874         0.000000     -0.000000      0.000000
 -----------------------------------------------------------------------------------
    total drift:                               -0.000000     -0.000000      0.000000


--------------------------------------------------------------------------------------------------------



  FREE ENERGIE OF THE ION-ELECTRON SYSTEM (eV)
  ---------------------------------------------------
  free  energy   TOTEN  =       -43.20924721 eV

  energy  without entropy=      -43.20924717  energy(sigma->0) =      -43.20924719
 
 d Force = 0.0000000E+00[ 0.000E+00, 0.000E+00]  d Energy =-0.5500038E-04 0.550E-04
 d Force = 0.0000000E+00[ 0.000E+00, 0.000E+00]  d Ewald  = 0.2629793E+00-0.263E+00


--------------------------------------------------------------------------------------------------------


    POTLOK:  cpu time    0.0053: real time    0.0053


--------------------------------------------------------------------------------------------------------




--------------------------------------------------------------------------------------------------------


  
 reached required accuracy - stopping structural energy minimisation
 writing wavefunctions
     LOOP+:  cpu time    1.5054: real time    1.5538
    4ORBIT:  cpu time    0.0000: real time    0.0000

 total amount of memory used by VASP on root node    31725. kBytes
========================================================================

   base      :      30000. kBytes
   nonl-proj :        501. kBytes
   fftplans  :        243. kBytes
   grid      :        329. kBytes
   one-center:          3. kBytes
   wavefun   :        649. kBytes
 
  
  
 General timing and accounting informations for this job:
 ========================================================
  
                  Total CPU time used (sec):       14.273
                            User time (sec):       13.553
                          System time (sec):        0.720
                         Elapsed time (sec):       16.097
  
                   Maximum memory used (kb):      133788.
                   Average memory used (kb):           0.
  
                          Minor page faults:        25728
                          Major page faults:           43
                 Voluntary context switches:         8667
