<?xml version="1.0" encoding="ISO-8859-1"?>
<modeling>
 <generator>
  <i name="program" type="string">vasp </i>
  <i name="version" type="string">5.4.1  </i>
  <i name="subversion" type="string">05Feb16 (build Feb 24 2020 14:33:01) complex                          parallel </i>
  <i name="platform" type="string">IFC91_ompi </i>
  <i name="date" type="string">2020 02 27 </i>
  <i name="time" type="string">22:01:28 </i>
 </generator>
 <incar>
  <i type="string" name="SYSTEM"> diamond Si</i>
  <i type="int" name="ISTART">     0</i>
  <i type="string" name="PREC">accurate</i>
  <i type="int" name="NSIM">     4</i>
  <i type="int" name="ICHARG">     2</i>
  <i type="int" name="NELM">    60</i>
  <i type="int" name="NELMDL">     3</i>
  <i type="int" name="NELMIN">     0</i>
  <i type="int" name="IBRION">     2</i>
  <i name="EDIFF">      0.00010000</i>
  <i name="EDIFFG">     -0.01000000</i>
  <i type="int" name="NSW">     9</i>
  <i type="int" name="ISIF">     3</i>
  <i name="ENCUT">    200.00000000</i>
  <i name="POTIM">      1.00000000</i>
  <i type="logical" name="LPLANE"> F  </i>
  <i type="int" name="ISMEAR">     0</i>
  <i name="SIGMA">      0.10000000</i>
  <v type="int" name="KPOINT_BSE">    -1     0     0     0</v>
  <i type="int" name="NELM">    60</i>
 </incar>
 <kpoints>
  <generation param="Monkhorst-Pack">
   <v type="int" name="divisions">      11       11       11 </v>
   <v name="usershift">      0.00000000       0.00000000       0.00000000 </v>
   <v name="genvec1">      0.09090909       0.00000000       0.00000000 </v>
   <v name="genvec2">      0.00000000       0.09090909       0.00000000 </v>
   <v name="genvec3">      0.00000000       0.00000000       0.09090909 </v>
   <v name="shift">      0.00000000       0.00000000       0.00000000 </v>
  </generation>
  <varray name="kpointlist" >
   <v>       0.00000000       0.00000000       0.00000000 </v>
   <v>       0.09090909       0.00000000       0.00000000 </v>
   <v>       0.18181818       0.00000000       0.00000000 </v>
   <v>       0.27272727       0.00000000       0.00000000 </v>
   <v>       0.36363636       0.00000000       0.00000000 </v>
   <v>       0.45454545       0.00000000       0.00000000 </v>
   <v>       0.09090909       0.09090909       0.00000000 </v>
   <v>       0.18181818       0.09090909       0.00000000 </v>
   <v>       0.27272727       0.09090909       0.00000000 </v>
   <v>       0.36363636       0.09090909       0.00000000 </v>
   <v>       0.45454545       0.09090909       0.00000000 </v>
   <v>       0.18181818       0.18181818       0.00000000 </v>
   <v>       0.27272727       0.18181818       0.00000000 </v>
   <v>       0.36363636       0.18181818       0.00000000 </v>
   <v>       0.45454545       0.18181818       0.00000000 </v>
   <v>       0.27272727       0.27272727       0.00000000 </v>
   <v>       0.36363636       0.27272727       0.00000000 </v>
   <v>       0.45454545       0.27272727       0.00000000 </v>
   <v>       0.36363636       0.36363636       0.00000000 </v>
   <v>       0.45454545       0.36363636       0.00000000 </v>
   <v>       0.45454545       0.45454545       0.00000000 </v>
   <v>       0.09090909       0.09090909       0.09090909 </v>
   <v>       0.18181818       0.09090909       0.09090909 </v>
   <v>       0.27272727       0.09090909       0.09090909 </v>
   <v>       0.36363636       0.09090909       0.09090909 </v>
   <v>       0.45454545       0.09090909       0.09090909 </v>
   <v>       0.18181818       0.18181818       0.09090909 </v>
   <v>       0.27272727       0.18181818       0.09090909 </v>
   <v>       0.36363636       0.18181818       0.09090909 </v>
   <v>       0.45454545       0.18181818       0.09090909 </v>
   <v>       0.27272727       0.27272727       0.09090909 </v>
   <v>       0.36363636       0.27272727       0.09090909 </v>
   <v>       0.45454545       0.27272727       0.09090909 </v>
   <v>       0.36363636       0.36363636       0.09090909 </v>
   <v>       0.45454545       0.36363636       0.09090909 </v>
   <v>       0.45454545       0.45454545       0.09090909 </v>
   <v>       0.18181818       0.18181818       0.18181818 </v>
   <v>       0.27272727       0.18181818       0.18181818 </v>
   <v>       0.36363636       0.18181818       0.18181818 </v>
   <v>       0.45454545       0.18181818       0.18181818 </v>
   <v>       0.27272727       0.27272727       0.18181818 </v>
   <v>       0.36363636       0.27272727       0.18181818 </v>
   <v>       0.45454545       0.27272727       0.18181818 </v>
   <v>       0.36363636       0.36363636       0.18181818 </v>
   <v>       0.45454545       0.36363636       0.18181818 </v>
   <v>       0.45454545       0.45454545       0.18181818 </v>
   <v>       0.27272727       0.27272727       0.27272727 </v>
   <v>       0.36363636       0.27272727       0.27272727 </v>
   <v>       0.45454545       0.27272727       0.27272727 </v>
   <v>       0.36363636       0.36363636       0.27272727 </v>
   <v>       0.45454545       0.36363636       0.27272727 </v>
   <v>       0.45454545       0.45454545       0.27272727 </v>
   <v>       0.36363636       0.36363636       0.36363636 </v>
   <v>       0.45454545       0.36363636       0.36363636 </v>
   <v>       0.45454545       0.45454545       0.36363636 </v>
   <v>       0.45454545       0.45454545       0.45454545 </v>
  </varray>
  <varray name="weights" >
   <v>       0.00075131 </v>
   <v>       0.00450789 </v>
   <v>       0.00450789 </v>
   <v>       0.00450789 </v>
   <v>       0.00450789 </v>
   <v>       0.00450789 </v>
   <v>       0.00901578 </v>
   <v>       0.01803156 </v>
   <v>       0.01803156 </v>
   <v>       0.01803156 </v>
   <v>       0.01803156 </v>
   <v>       0.00901578 </v>
   <v>       0.01803156 </v>
   <v>       0.01803156 </v>
   <v>       0.01803156 </v>
   <v>       0.00901578 </v>
   <v>       0.01803156 </v>
   <v>       0.01803156 </v>
   <v>       0.00901578 </v>
   <v>       0.01803156 </v>
   <v>       0.00901578 </v>
   <v>       0.00601052 </v>
   <v>       0.01803156 </v>
   <v>       0.01803156 </v>
   <v>       0.01803156 </v>
   <v>       0.01803156 </v>
   <v>       0.01803156 </v>
   <v>       0.03606311 </v>
   <v>       0.03606311 </v>
   <v>       0.03606311 </v>
   <v>       0.01803156 </v>
   <v>       0.03606311 </v>
   <v>       0.03606311 </v>
   <v>       0.01803156 </v>
   <v>       0.03606311 </v>
   <v>       0.01803156 </v>
   <v>       0.00601052 </v>
   <v>       0.01803156 </v>
   <v>       0.01803156 </v>
   <v>       0.01803156 </v>
   <v>       0.01803156 </v>
   <v>       0.03606311 </v>
   <v>       0.03606311 </v>
   <v>       0.01803156 </v>
   <v>       0.03606311 </v>
   <v>       0.01803156 </v>
   <v>       0.00601052 </v>
   <v>       0.01803156 </v>
   <v>       0.01803156 </v>
   <v>       0.01803156 </v>
   <v>       0.03606311 </v>
   <v>       0.01803156 </v>
   <v>       0.00601052 </v>
   <v>       0.01803156 </v>
   <v>       0.01803156 </v>
   <v>       0.00601052 </v>
  </varray>
 </kpoints>
 <parameters>
  <separator name="general" >
   <i type="string" name="SYSTEM">diamond Si</i>
   <i type="logical" name="LCOMPAT"> F  </i>
  </separator>
  <separator name="electronic" >
   <i type="string" name="PREC">accura</i>
   <i name="ENMAX">    200.00000000</i>
   <i name="ENAUG">    322.06900000</i>
   <i name="EDIFF">      0.00010000</i>
   <i type="int" name="IALGO">    38</i>
   <i type="int" name="IWAVPR">    11</i>
   <i type="int" name="NBANDS">    25</i>
   <i name="NELECT">     32.00000000</i>
   <i type="int" name="TURBO">     0</i>
   <i type="int" name="IRESTART">     0</i>
   <i type="int" name="NREBOOT">     0</i>
   <i type="int" name="NMIN">     0</i>
   <i name="EREF">      0.00000000</i>
   <separator name="electronic smearing" >
    <i type="int" name="ISMEAR">     0</i>
    <i name="SIGMA">      0.10000000</i>
    <i name="KSPACING">      0.50000000</i>
    <i type="logical" name="KGAMMA"> T  </i>
   </separator>
   <separator name="electronic projectors" >
    <i type="logical" name="LREAL"> F  </i>
    <v name="ROPT">      0.00000000</v>
    <i type="int" name="LMAXPAW">  -100</i>
    <i type="int" name="LMAXMIX">     2</i>
    <i type="logical" name="NLSPLINE"> F  </i>
   </separator>
   <separator name="electronic startup" >
    <i type="int" name="ISTART">     0</i>
    <i type="int" name="ICHARG">     2</i>
    <i type="int" name="INIWAV">     1</i>
   </separator>
   <separator name="electronic spin" >
    <i type="int" name="ISPIN">     1</i>
    <i type="logical" name="LNONCOLLINEAR"> F  </i>
    <v name="MAGMOM">      1.00000000      1.00000000      1.00000000      1.00000000      1.00000000      1.00000000      1.00000000      1.00000000</v>
    <i name="NUPDOWN">     -1.00000000</i>
    <i type="logical" name="LSORBIT"> F  </i>
    <v name="SAXIS">      0.00000000      0.00000000      1.00000000</v>
    <i type="logical" name="LSPIRAL"> F  </i>
    <v name="QSPIRAL">      0.00000000      0.00000000      0.00000000</v>
    <i type="logical" name="LZEROZ"> F  </i>
   </separator>
   <separator name="electronic exchange-correlation" >
    <i type="logical" name="LASPH"> F  </i>
    <i type="logical" name="LMETAGGA"> F  </i>
   </separator>
   <separator name="electronic convergence" >
    <i type="int" name="NELM">    60</i>
    <i type="int" name="NELMDL">     3</i>
    <i type="int" name="NELMIN">     0</i>
    <i name="ENINI">    200.00000000</i>
    <separator name="electronic convergence detail" >
     <i type="logical" name="LDIAG"> T  </i>
     <i type="logical" name="LSUBROT"> F  </i>
     <i name="WEIMIN">      0.00100000</i>
     <i name="EBREAK">      0.00000100</i>
     <i name="DEPER">      0.30000000</i>
     <i type="int" name="NRMM">     4</i>
     <i name="TIME">      0.40000000</i>
    </separator>
   </separator>
   <separator name="electronic mixer" >
    <i name="AMIX">      0.40000000</i>
    <i name="BMIX">      1.00000000</i>
    <i name="AMIN">      0.10000000</i>
    <i name="AMIX_MAG">      1.60000000</i>
    <i name="BMIX_MAG">      1.00000000</i>
    <separator name="electronic mixer details" >
     <i type="int" name="IMIX">     4</i>
     <i type="logical" name="MIXFIRST"> F  </i>
     <i type="int" name="MAXMIX">   -45</i>
     <i name="WC">    100.00000000</i>
     <i type="int" name="INIMIX">     1</i>
     <i type="int" name="MIXPRE">     1</i>
     <i type="int" name="MREMOVE">     5</i>
    </separator>
   </separator>
   <separator name="electronic dipolcorrection" >
    <i type="logical" name="LDIPOL"> F  </i>
    <i type="logical" name="LMONO"> F  </i>
    <i type="int" name="IDIPOL">     0</i>
    <i name="EPSILON">      1.00000000</i>
    <v name="DIPOL">   -100.00000000   -100.00000000   -100.00000000</v>
    <i name="EFIELD">      0.00000000</i>
   </separator>
  </separator>
  <separator name="grids" >
   <i type="int" name="NGX">    28</i>
   <i type="int" name="NGY">    28</i>
   <i type="int" name="NGZ">    28</i>
   <i type="int" name="NGXF">    56</i>
   <i type="int" name="NGYF">    56</i>
   <i type="int" name="NGZF">    56</i>
   <i type="logical" name="ADDGRID"> F  </i>
  </separator>
  <separator name="ionic" >
   <i type="int" name="NSW">     9</i>
   <i type="int" name="IBRION">     2</i>
   <i type="int" name="ISIF">     3</i>
   <i name="PSTRESS">      0.00000000</i>
   <i name="EDIFFG">     -0.01000000</i>
   <i type="int" name="NFREE">     1</i>
   <i name="POTIM">      1.00000000</i>
   <i name="SMASS">     -3.00000000</i>
   <i name="SCALEE">      1.00000000</i>
  </separator>
  <separator name="ionic md" >
   <i name="TEBEG">      0.00010000</i>
   <i name="TEEND">      0.00010000</i>
   <i type="int" name="NBLOCK">     1</i>
   <i type="int" name="KBLOCK">     9</i>
   <i type="int" name="NPACO">   256</i>
   <i name="APACO">     16.00000000</i>
  </separator>
  <separator name="symmetry" >
   <i type="int" name="ISYM">     2</i>
   <i name="SYMPREC">      0.00001000</i>
  </separator>
  <separator name="dos" >
   <i type="logical" name="LORBIT"> F  </i>
   <v name="RWIGS">     -1.00000000</v>
   <i type="int" name="NEDOS">   301</i>
   <i name="EMIN">     10.00000000</i>
   <i name="EMAX">    -10.00000000</i>
   <i name="EFERMI">      0.00000000</i>
  </separator>
  <separator name="writing" >
   <i type="int" name="NWRITE">     2</i>
   <i type="logical" name="LWAVE"> T  </i>
   <i type="logical" name="LCHARG"> T  </i>
   <i type="logical" name="LPARD"> F  </i>
   <i type="logical" name="LVTOT"> F  </i>
   <i type="logical" name="LVHAR"> F  </i>
   <i type="logical" name="LELF"> F  </i>
   <i type="logical" name="LOPTICS"> F  </i>
   <v name="STM">      0.00000000      0.00000000      0.00000000      0.00000000      0.00000000      0.00000000      0.00000000</v>
  </separator>
  <separator name="performance" >
   <i type="int" name="NPAR">     5</i>
   <i type="int" name="NSIM">     4</i>
   <i type="int" name="NBLK">    -1</i>
   <i type="logical" name="LPLANE"> F  </i>
   <i type="logical" name="LSCALAPACK"> T  </i>
   <i type="logical" name="LSCAAWARE"> F  </i>
   <i type="logical" name="LSCALU"> F  </i>
   <i type="logical" name="LASYNC"> F  </i>
   <i type="logical" name="LORBITALREAL"> F  </i>
  </separator>
  <separator name="miscellaneous" >
   <i type="int" name="IDIOT">     3</i>
   <i type="logical" name="LMUSIC"> F  </i>
   <v name="POMASS">     28.08500000</v>
   <v name="DARWINR">      0.00000000</v>
   <v name="DARWINV">      1.00000000</v>
   <i type="logical" name="LCORR"> T  </i>
  </separator>
  <i type="logical" name="GGA_COMPAT"> T  </i>
  <i type="logical" name="LBERRY"> F  </i>
  <i type="int" name="ICORELEVEL">     0</i>
  <i type="logical" name="LDAU"> F  </i>
  <i type="int" name="I_CONSTRAINED_M">     0</i>
  <separator name="electronic exchange-correlation" >
   <i type="string" name="GGA">--</i>
   <i type="int" name="VOSKOWN">     0</i>
   <i type="logical" name="LHFCALC"> F  </i>
   <i type="string" name="PRECFOCK"></i>
   <i type="logical" name="LSYMGRAD"> F  </i>
   <i type="logical" name="LHFONE"> F  </i>
   <i type="logical" name="LRHFCALC"> F  </i>
   <i type="logical" name="LTHOMAS"> F  </i>
   <i type="logical" name="LMODELHF"> F  </i>
   <i name="ENCUT4O">     -1.00000000</i>
   <i type="int" name="EXXOEP">     0</i>
   <i type="int" name="FOURORBIT">     0</i>
   <i name="AEXX">      0.00000000</i>
   <i name="HFALPHA">      0.00000000</i>
   <i name="MCALPHA">      0.00000000</i>
   <i name="ALDAX">      1.00000000</i>
   <i name="AGGAX">      1.00000000</i>
   <i name="ALDAC">      1.00000000</i>
   <i name="AGGAC">      1.00000000</i>
   <i type="int" name="NKREDX">     1</i>
   <i type="int" name="NKREDY">     1</i>
   <i type="int" name="NKREDZ">     1</i>
   <i type="logical" name="SHIFTRED"> F  </i>
   <i type="logical" name="ODDONLY"> F  </i>
   <i type="logical" name="EVENONLY"> F  </i>
   <i type="int" name="LMAXFOCK">     0</i>
   <i type="int" name="NMAXFOCKAE">     0</i>
   <i type="logical" name="LFOCKAEDFT"> F  </i>
   <i name="HFSCREEN">      0.00000000</i>
   <i name="HFSCREENC">      0.00000000</i>
   <i type="int" name="NBANDSGWLOW">     0</i>
  </separator>
  <separator name="vdW DFT" >
   <i type="logical" name="LUSE_VDW"> F  </i>
   <i name="Zab_VDW">     -0.84910000</i>
   <i name="PARAM1">      0.12340000</i>
   <i name="PARAM2">      1.00000000</i>
   <i name="PARAM3">      0.00000000</i>
  </separator>
  <separator name="model GW" >
   <i type="int" name="MODEL_GW">     0</i>
   <i name="MODEL_EPS0">     12.01436085</i>
   <i name="MODEL_ALPHA">      1.00000000</i>
  </separator>
  <separator name="linear response parameters" >
   <i type="logical" name="LEPSILON"> F  </i>
   <i type="logical" name="LRPA"> F  </i>
   <i type="logical" name="LNABLA"> F  </i>
   <i type="logical" name="LVEL"> F  </i>
   <i type="int" name="KINTER">     0</i>
   <i name="CSHIFT">      0.10000000</i>
   <i name="OMEGAMAX">     -1.00000000</i>
   <i name="DEG_THRESHOLD">      0.00200000</i>
  </separator>
  <separator name="orbital magnetization" >
   <i type="logical" name="NUCIND"> F  </i>
   <v name="MAGPOS">      0.00000000      0.00000000      0.00000000</v>
   <i type="logical" name="LNICSALL"> T  </i>
   <i type="logical" name="ORBITALMAG"> F  </i>
   <i type="logical" name="LMAGBLOCH"> F  </i>
   <i type="logical" name="LCHIMAG"> F  </i>
   <i type="logical" name="LGAUGE"> T  </i>
   <i type="int" name="MAGATOM">     0</i>
   <v name="MAGDIPOL">      0.00000000      0.00000000      0.00000000</v>
   <v name="AVECCONST">      0.00000000      0.00000000      0.00000000</v>
  </separator>
  <separator name="response functions" >
   <i type="logical" name="LADDER"> F  </i>
   <i type="logical" name="LFXC"> F  </i>
   <i type="logical" name="LHARTREE"> T  </i>
   <i type="int" name="IBSE">     0</i>
   <v type="int" name="KPOINT">    -1     0     0     0</v>
   <i type="logical" name="LTCTE"> F  </i>
   <i type="logical" name="LTETE"> F  </i>
   <i type="logical" name="LTRIPLET"> F  </i>
   <i type="logical" name="LFXCEPS"> F  </i>
   <i type="logical" name="LFXHEG"> F  </i>
   <i type="int" name="NATURALO">     0</i>
   <i type="logical" name="L2ORDER"> F  </i>
   <i type="logical" name="LUSEW"> F  </i>
   <i name="ENCUTGW">     -2.00000000</i>
   <i name="ENCUTGWSOFT">     -2.00000000</i>
   <i name="ENCUTLF">     -1.00000000</i>
   <i type="int" name="LMAXMP2">    -1</i>
   <i name="SCISSOR">      0.00000000</i>
   <i type="int" name="NOMEGA">     0</i>
   <i type="int" name="NOMEGAR">     0</i>
   <i type="int" name="NBANDSGW">    -1</i>
   <i type="int" name="NBANDSO">    -1</i>
   <i type="int" name="NBANDSV">    -1</i>
   <i type="int" name="NELM">    60</i>
   <i type="int" name="NELMHF">     1</i>
   <i type="int" name="DIM">     3</i>
   <i type="int" name="ANTIRES">     0</i>
   <i name="OMEGAMAX">    -30.00000000</i>
   <i name="OMEGAMIN">    -30.00000000</i>
   <i name="OMEGATL">   -200.00000000</i>
   <i type="int" name="OMEGAGRID">     0</i>
   <i name="CSHIFT">     -0.10000000</i>
   <i type="logical" name="SELFENERGY"> F  </i>
   <i type="logical" name="LSPECTRAL"> F  </i>
   <i type="logical" name="LSPECTRALGW"> F  </i>
   <i type="logical" name="LSINGLES"> F  </i>
   <i type="logical" name="LFERMIGW"> F  </i>
   <i type="logical" name="ODDONLYGW"> F  </i>
   <i type="logical" name="EVENONLYGW"> F  </i>
   <i type="int" name="NKREDLFX">     1</i>
   <i type="int" name="NKREDLFY">     1</i>
   <i type="int" name="NKREDLFZ">     1</i>
   <i type="int" name="MAXMEM">  1800</i>
   <i type="int" name="TELESCOPE">     0</i>
   <i type="int" name="TAUPAR">     1</i>
   <i type="int" name="OMEGAPAR">    -1</i>
   <i name="LAMBDA">      1.00000000</i>
  </separator>
  <separator name="External order field" >
   <i name="OFIELD_KAPPA">      0.00000000</i>
   <v name="OFIELD_K">      0.00000000      0.00000000      0.00000000</v>
   <i name="OFIELD_Q6_NEAR">      0.00000000</i>
   <i name="OFIELD_Q6_FAR">      0.00000000</i>
   <i name="OFIELD_A">      0.00000000</i>
  </separator>
 </parameters>
 <atominfo>
  <atoms>       8 </atoms>
  <types>       1 </types>
  <array name="atoms" >
   <dimension dim="1">ion</dimension>
   <field type="string">element</field>
   <field type="int">atomtype</field>
   <set>
    <rc><c>Si</c><c>   1</c></rc>
    <rc><c>Si</c><c>   1</c></rc>
    <rc><c>Si</c><c>   1</c></rc>
    <rc><c>Si</c><c>   1</c></rc>
    <rc><c>Si</c><c>   1</c></rc>
    <rc><c>Si</c><c>   1</c></rc>
    <rc><c>Si</c><c>   1</c></rc>
    <rc><c>Si</c><c>   1</c></rc>
   </set>
  </array>
  <array name="atomtypes" >
   <dimension dim="1">type</dimension>
   <field type="int">atomspertype</field>
   <field type="string">element</field>
   <field>mass</field>
   <field>valence</field>
   <field type="string">pseudopotential</field>
   <set>
    <rc><c>   8</c><c>Si</c><c>     28.08500000</c><c>      4.00000000</c><c>  PAW_PBE Si 05Jan2001                  </c></rc>
   </set>
  </array>
 </atominfo>
 <structure name="initialpos" >
  <crystal>
   <varray name="basis" >
    <v>       5.43100000       0.00000000       0.00000000 </v>
    <v>       0.00000000       5.43100000       0.00000000 </v>
    <v>       0.00000000       0.00000000       5.43100000 </v>
   </varray>
   <i name="volume">    160.19147799 </i>
   <varray name="rec_basis" >
    <v>       0.18412815       0.00000000       0.00000000 </v>
    <v>       0.00000000       0.18412815       0.00000000 </v>
    <v>       0.00000000       0.00000000       0.18412815 </v>
   </varray>
  </crystal>
  <varray name="positions" >
   <v>       0.00000000       0.00000000       0.00000000 </v>
   <v>       0.00000000       0.50000000       0.50000000 </v>
   <v>       0.50000000       0.00000000       0.50000000 </v>
   <v>       0.50000000       0.50000000       0.00000000 </v>
   <v>       0.25000000       0.25000000       0.25000000 </v>
   <v>       0.75000000       0.75000000       0.25000000 </v>
   <v>       0.75000000       0.25000000       0.75000000 </v>
   <v>       0.25000000       0.75000000       0.75000000 </v>
  </varray>
 </structure>
 <calculation>
  <scstep>
   <time name="dav">    0.60    0.72</time>
   <time name="total">    0.62    0.75</time>
   <energy>
    <i name="alphaZ">     13.44915721 </i>
    <i name="ewald">   -914.08579262 </i>
    <i name="hartreedc">    -44.03749844 </i>
    <i name="XCdc">    -74.41614067 </i>
    <i name="pawpsdc">    704.99039692 </i>
    <i name="pawaedc">   -564.24414232 </i>
    <i name="eentropy">     -0.00776786 </i>
    <i name="bandstr">     77.26414920 </i>
    <i name="atom">    824.44989050 </i>
    <i name="e_fr_energy">     23.36225192 </i>
    <i name="e_wo_entrp">     23.37001978 </i>
    <i name="e_0_energy">     23.36613585 </i>
   </energy>
  </scstep>
  <scstep>
   <time name="dav">    0.48    0.51</time>
   <time name="total">    0.48    0.52</time>
   <energy>
    <i name="e_fr_energy">    -41.52010455 </i>
    <i name="e_wo_entrp">    -41.52010450 </i>
    <i name="e_0_energy">    -41.52010452 </i>
   </energy>
  </scstep>
  <scstep>
   <time name="dav">    0.47    0.47</time>
   <time name="total">    0.51    0.51</time>
   <energy>
    <i name="e_fr_energy">    -43.88790627 </i>
    <i name="e_wo_entrp">    -43.88790627 </i>
    <i name="e_0_energy">    -43.88790627 </i>
   </energy>
  </scstep>
  <scstep>
   <time name="dav">    0.47    0.47</time>
   <time name="total">    0.50    0.50</time>
   <energy>
    <i name="e_fr_energy">    -43.41442911 </i>
    <i name="e_wo_entrp">    -43.41442910 </i>
    <i name="e_0_energy">    -43.41442910 </i>
   </energy>
  </scstep>
  <scstep>
   <time name="dav">    0.44    0.44</time>
   <time name="total">    0.47    0.47</time>
   <energy>
    <i name="e_fr_energy">    -43.18671854 </i>
    <i name="e_wo_entrp">    -43.18671828 </i>
    <i name="e_0_energy">    -43.18671841 </i>
   </energy>
  </scstep>
  <scstep>
   <time name="dav">    0.60    0.62</time>
   <time name="total">    0.63    0.65</time>
   <energy>
    <i name="e_fr_energy">    -43.19097262 </i>
    <i name="e_wo_entrp">    -43.19097247 </i>
    <i name="e_0_energy">    -43.19097255 </i>
   </energy>
  </scstep>
  <scstep>
   <time name="dav">    0.57    0.58</time>
   <time name="total">    0.60    0.61</time>
   <energy>
    <i name="e_fr_energy">    -43.19196618 </i>
    <i name="e_wo_entrp">    -43.19196607 </i>
    <i name="e_0_energy">    -43.19196612 </i>
   </energy>
  </scstep>
  <scstep>
   <time name="dav">    0.54    0.57</time>
   <time name="total">    0.57    0.61</time>
   <energy>
    <i name="e_fr_energy">    -43.19217966 </i>
    <i name="e_wo_entrp">    -43.19217956 </i>
    <i name="e_0_energy">    -43.19217961 </i>
   </energy>
  </scstep>
  <scstep>
   <time name="dav">    0.42    0.43</time>
   <time name="total">    0.44    0.45</time>
   <energy>
    <i name="alphaZ">     13.44915721 </i>
    <i name="ewald">   -914.08579262 </i>
    <i name="hartreedc">    -59.63281385 </i>
    <i name="XCdc">    -71.77388408 </i>
    <i name="pawpsdc">   5045.88000004 </i>
    <i name="pawaedc">  -4906.08115449 </i>
    <i name="eentropy">     -0.00000011 </i>
    <i name="bandstr">     24.60240708 </i>
    <i name="atom">    824.44989050 </i>
    <i name="e_fr_energy">    -43.19219032 </i>
    <i name="e_wo_entrp">    -43.19219021 </i>
    <i name="e_0_energy">    -43.19219026 </i>
   </energy>
  </scstep>
  <structure>
   <crystal>
    <varray name="basis" >
     <v>       5.43100000       0.00000000       0.00000000 </v>
     <v>       0.00000000       5.43100000       0.00000000 </v>
     <v>       0.00000000       0.00000000       5.43100000 </v>
    </varray>
    <i name="volume">    160.19147799 </i>
    <varray name="rec_basis" >
     <v>       0.18412815       0.00000000       0.00000000 </v>
     <v>       0.00000000       0.18412815       0.00000000 </v>
     <v>       0.00000000       0.00000000       0.18412815 </v>
    </varray>
   </crystal>
   <varray name="positions" >
    <v>       0.00000000       0.00000000       0.00000000 </v>
    <v>       0.00000000       0.50000000       0.50000000 </v>
    <v>       0.50000000       0.00000000       0.50000000 </v>
    <v>       0.50000000       0.50000000       0.00000000 </v>
    <v>       0.25000000       0.25000000       0.25000000 </v>
    <v>       0.75000000       0.75000000       0.25000000 </v>
    <v>       0.75000000       0.25000000       0.75000000 </v>
    <v>       0.25000000       0.75000000       0.75000000 </v>
   </varray>
  </structure>
  <varray name="forces" >
   <v>       0.00000000       0.00000000       0.00000000 </v>
   <v>       0.00000000      -0.00000000       0.00000000 </v>
   <v>      -0.00000000       0.00000000       0.00000000 </v>
   <v>       0.00000000      -0.00000000       0.00000000 </v>
   <v>      -0.00000000       0.00000000      -0.00000000 </v>
   <v>      -0.00000000      -0.00000000      -0.00000000 </v>
   <v>      -0.00000000       0.00000000       0.00000000 </v>
   <v>       0.00000000      -0.00000000      -0.00000000 </v>
  </varray>
  <varray name="stress" >
   <v>      17.90321314      -0.00000000      -0.00000000 </v>
   <v>      -0.00000000      17.90321314       0.00000000 </v>
   <v>      -0.00000000       0.00000000      17.90321314 </v>
  </varray>
  <energy>
   <i name="e_fr_energy">    -43.19219032 </i>
   <i name="e_wo_entrp">    -43.19219026 </i>
   <i name="e_0_energy">     -0.00000011 </i>
  </energy>
  <time name="totalsc">    5.09    5.38</time>
 </calculation>
 <calculation>
  <scstep>
   <time name="dav">    0.52    0.52</time>
   <time name="total">    0.53    0.53</time>
   <energy>
    <i name="alphaZ">     12.61439838 </i>
    <i name="ewald">   -894.76869865 </i>
    <i name="hartreedc">    -58.37715620 </i>
    <i name="XCdc">    -73.02817049 </i>
    <i name="pawpsdc">   5051.58102844 </i>
    <i name="pawaedc">  -4911.78185948 </i>
    <i name="eentropy">     -0.00000000 </i>
    <i name="bandstr">      6.10346730 </i>
    <i name="atom">    824.44989050 </i>
    <i name="e_fr_energy">    -43.20710019 </i>
    <i name="e_wo_entrp">    -43.20710019 </i>
    <i name="e_0_energy">    -43.20710019 </i>
   </energy>
  </scstep>
  <scstep>
   <time name="dav">    0.46    0.46</time>
   <time name="total">    0.46    0.47</time>
   <energy>
    <i name="e_fr_energy">    -43.21322170 </i>
    <i name="e_wo_entrp">    -43.21322170 </i>
    <i name="e_0_energy">    -43.21322170 </i>
   </energy>
  </scstep>
  <scstep>
   <time name="dav">    0.45    0.45</time>
   <time name="total">    0.47    0.47</time>
   <energy>
    <i name="e_fr_energy">    -43.21326117 </i>
    <i name="e_wo_entrp">    -43.21326117 </i>
    <i name="e_0_energy">    -43.21326117 </i>
   </energy>
  </scstep>
  <scstep>
   <time name="dav">    0.42    0.42</time>
   <time name="total">    0.44    0.44</time>
   <energy>
    <i name="e_fr_energy">    -43.15199163 </i>
    <i name="e_wo_entrp">    -43.15199163 </i>
    <i name="e_0_energy">    -43.15199163 </i>
   </energy>
  </scstep>
  <scstep>
   <time name="dav">    0.44    0.44</time>
   <time name="total">    0.47    0.47</time>
   <energy>
    <i name="e_fr_energy">    -43.12178254 </i>
    <i name="e_wo_entrp">    -43.12178254 </i>
    <i name="e_0_energy">    -43.12178254 </i>
   </energy>
  </scstep>
  <scstep>
   <time name="dav">    0.44    0.44</time>
   <time name="total">    0.47    0.47</time>
   <energy>
    <i name="e_fr_energy">    -43.12147227 </i>
    <i name="e_wo_entrp">    -43.12147227 </i>
    <i name="e_0_energy">    -43.12147227 </i>
   </energy>
  </scstep>
  <scstep>
   <time name="dav">    0.39    0.39</time>
   <time name="total">    0.40    0.40</time>
   <energy>
    <i name="alphaZ">     12.61439838 </i>
    <i name="ewald">   -894.76869865 </i>
    <i name="hartreedc">    -62.70892288 </i>
    <i name="XCdc">    -72.93304202 </i>
    <i name="pawpsdc">   4558.45200302 </i>
    <i name="pawaedc">  -4418.43489796 </i>
    <i name="eentropy">     -0.00000000 </i>
    <i name="bandstr">     10.20784461 </i>
    <i name="atom">    824.44989050 </i>
    <i name="e_fr_energy">    -43.12142500 </i>
    <i name="e_wo_entrp">    -43.12142500 </i>
    <i name="e_0_energy">    -43.12142500 </i>
   </energy>
  </scstep>
  <structure>
   <crystal>
    <varray name="basis" >
     <v>       5.54824945      -0.00000000      -0.00000000 </v>
     <v>      -0.00000000       5.54824945       0.00000000 </v>
     <v>      -0.00000000       0.00000000       5.54824945 </v>
    </varray>
    <i name="volume">    170.79216202 </i>
    <varray name="rec_basis" >
     <v>       0.18023703       0.00000000       0.00000000 </v>
     <v>       0.00000000       0.18023703      -0.00000000 </v>
     <v>       0.00000000      -0.00000000       0.18023703 </v>
    </varray>
   </crystal>
   <varray name="positions" >
    <v>       0.00000000       0.00000000       0.00000000 </v>
    <v>       0.00000000       0.50000000       0.50000000 </v>
    <v>       0.50000000       0.00000000       0.50000000 </v>
    <v>       0.50000000       0.50000000       0.00000000 </v>
    <v>       0.25000000       0.25000000       0.25000000 </v>
    <v>       0.75000000       0.75000000       0.25000000 </v>
    <v>       0.75000000       0.25000000       0.75000000 </v>
    <v>       0.25000000       0.75000000       0.75000000 </v>
   </varray>
  </structure>
  <varray name="forces" >
   <v>       0.00000000      -0.00000000      -0.00000000 </v>
   <v>       0.00000000       0.00000000       0.00000000 </v>
   <v>      -0.00000000      -0.00000000       0.00000000 </v>
   <v>      -0.00000000      -0.00000000      -0.00000000 </v>
   <v>      -0.00000000       0.00000000       0.00000000 </v>
   <v>      -0.00000000      -0.00000000       0.00000000 </v>
   <v>       0.00000000      -0.00000000      -0.00000000 </v>
   <v>       0.00000000       0.00000000      -0.00000000 </v>
  </varray>
  <varray name="stress" >
   <v>     -36.12082806      -0.00000000       0.00000000 </v>
   <v>       0.00000000     -36.12082806      -0.00000000 </v>
   <v>      -0.00000000      -0.00000000     -36.12082806 </v>
  </varray>
  <energy>
   <i name="e_fr_energy">    -43.12142500 </i>
   <i name="e_wo_entrp">    -43.12142500 </i>
   <i name="e_0_energy">     -0.00000000 </i>
  </energy>
  <time name="totalsc">    3.37    3.41</time>
 </calculation>
 <calculation>
  <scstep>
   <time name="dav">    0.43    0.43</time>
   <time name="total">    0.44    0.44</time>
   <energy>
    <i name="alphaZ">     13.18836428 </i>
    <i name="ewald">   -908.13883291 </i>
    <i name="hartreedc">    -63.65675062 </i>
    <i name="XCdc">    -72.07521378 </i>
    <i name="pawpsdc">   4575.70772569 </i>
    <i name="pawaedc">  -4435.69472108 </i>
    <i name="eentropy">     -0.00000029 </i>
    <i name="bandstr">     22.96897554 </i>
    <i name="atom">    824.44989050 </i>
    <i name="e_fr_energy">    -43.25056266 </i>
    <i name="e_wo_entrp">    -43.25056237 </i>
    <i name="e_0_energy">    -43.25056251 </i>
   </energy>
  </scstep>
  <scstep>
   <time name="dav">    0.46    0.46</time>
   <time name="total">    0.46    0.47</time>
   <energy>
    <i name="e_fr_energy">    -43.25433202 </i>
    <i name="e_wo_entrp">    -43.25433173 </i>
    <i name="e_0_energy">    -43.25433187 </i>
   </energy>
  </scstep>
  <scstep>
   <time name="dav">    0.49    0.49</time>
   <time name="total">    0.51    0.51</time>
   <energy>
    <i name="e_fr_energy">    -43.25434976 </i>
    <i name="e_wo_entrp">    -43.25434946 </i>
    <i name="e_0_energy">    -43.25434961 </i>
   </energy>
  </scstep>
  <scstep>
   <time name="dav">    0.40    0.40</time>
   <time name="total">    0.43    0.43</time>
   <energy>
    <i name="e_fr_energy">    -43.22405921 </i>
    <i name="e_wo_entrp">    -43.22405910 </i>
    <i name="e_0_energy">    -43.22405915 </i>
   </energy>
  </scstep>
  <scstep>
   <time name="dav">    0.43    0.44</time>
   <time name="total">    0.46    0.46</time>
   <energy>
    <i name="e_fr_energy">    -43.20937147 </i>
    <i name="e_wo_entrp">    -43.20937143 </i>
    <i name="e_0_energy">    -43.20937145 </i>
   </energy>
  </scstep>
  <scstep>
   <time name="dav">    0.45    0.45</time>
   <time name="total">    0.46    0.46</time>
   <energy>
    <i name="alphaZ">     13.18836428 </i>
    <i name="ewald">   -908.13883291 </i>
    <i name="hartreedc">    -60.64756209 </i>
    <i name="XCdc">    -72.11948321 </i>
    <i name="pawpsdc">   4871.36132830 </i>
    <i name="pawaedc">  -4731.50664198 </i>
    <i name="eentropy">     -0.00000004 </i>
    <i name="bandstr">     20.20363494 </i>
    <i name="atom">    824.44989050 </i>
    <i name="e_fr_energy">    -43.20930221 </i>
    <i name="e_wo_entrp">    -43.20930217 </i>
    <i name="e_0_energy">    -43.20930219 </i>
   </energy>
  </scstep>
  <structure>
   <crystal>
    <varray name="basis" >
     <v>       5.46656498      -0.00000000      -0.00000000 </v>
     <v>      -0.00000000       5.46656498       0.00000000 </v>
     <v>      -0.00000000       0.00000000       5.46656498 </v>
    </varray>
    <i name="volume">    163.35917980 </i>
    <varray name="rec_basis" >
     <v>       0.18293023       0.00000000       0.00000000 </v>
     <v>       0.00000000       0.18293023      -0.00000000 </v>
     <v>       0.00000000      -0.00000000       0.18293023 </v>
    </varray>
   </crystal>
   <varray name="positions" >
    <v>       0.00000000       0.00000000       0.00000000 </v>
    <v>       0.00000000       0.50000000       0.50000000 </v>
    <v>       0.50000000       0.00000000       0.50000000 </v>
    <v>       0.50000000       0.50000000       0.00000000 </v>
    <v>       0.25000000       0.25000000       0.25000000 </v>
    <v>       0.75000000       0.75000000       0.25000000 </v>
    <v>       0.75000000       0.25000000       0.75000000 </v>
    <v>       0.25000000       0.75000000       0.75000000 </v>
   </varray>
  </structure>
  <varray name="forces" >
   <v>       0.00000000      -0.00000000       0.00000000 </v>
   <v>       0.00000000       0.00000000       0.00000000 </v>
   <v>      -0.00000000       0.00000000       0.00000000 </v>
   <v>      -0.00000000       0.00000000      -0.00000000 </v>
   <v>       0.00000000      -0.00000000       0.00000000 </v>
   <v>      -0.00000000       0.00000000      -0.00000000 </v>
   <v>      -0.00000000       0.00000000      -0.00000000 </v>
   <v>       0.00000000      -0.00000000      -0.00000000 </v>
  </varray>
  <varray name="stress" >
   <v>      -0.81758058      -0.00000000       0.00000000 </v>
   <v>       0.00000000      -0.81758058       0.00000000 </v>
   <v>       0.00000000      -0.00000000      -0.81758058 </v>
  </varray>
  <energy>
   <i name="e_fr_energy">    -43.20930221 </i>
   <i name="e_wo_entrp">    -43.20930219 </i>
   <i name="e_0_energy">     -0.00000004 </i>
  </energy>
  <time name="totalsc">    2.89    2.93</time>
 </calculation>
 <calculation>
  <scstep>
   <time name="dav">    0.41    0.41</time>
   <time name="total">    0.41    0.42</time>
   <energy>
    <i name="alphaZ">     13.19982488 </i>
    <i name="ewald">   -908.40181222 </i>
    <i name="hartreedc">    -60.58169365 </i>
    <i name="XCdc">    -72.11268803 </i>
    <i name="pawpsdc">   4910.86344870 </i>
    <i name="pawaedc">  -4770.99680099 </i>
    <i name="eentropy">     -0.00000004 </i>
    <i name="bandstr">     20.37057672 </i>
    <i name="atom">    824.44989050 </i>
    <i name="e_fr_energy">    -43.20925412 </i>
    <i name="e_wo_entrp">    -43.20925408 </i>
    <i name="e_0_energy">    -43.20925410 </i>
   </energy>
  </scstep>
  <scstep>
   <time name="dav">    0.31    0.31</time>
   <time name="total">    0.31    0.31</time>
   <energy>
    <i name="e_fr_energy">    -43.20925470 </i>
    <i name="e_wo_entrp">    -43.20925466 </i>
    <i name="e_0_energy">    -43.20925468 </i>
   </energy>
  </scstep>
  <scstep>
   <time name="dav">    0.29    0.29</time>
   <time name="total">    0.31    0.32</time>
   <energy>
    <i name="e_fr_energy">    -43.20925474 </i>
    <i name="e_wo_entrp">    -43.20925470 </i>
    <i name="e_0_energy">    -43.20925472 </i>
   </energy>
  </scstep>
  <scstep>
   <time name="dav">    0.29    0.29</time>
   <time name="total">    0.30    0.30</time>
   <energy>
    <i name="alphaZ">     13.19982488 </i>
    <i name="ewald">   -908.40181222 </i>
    <i name="hartreedc">    -60.55727596 </i>
    <i name="XCdc">    -72.11389225 </i>
    <i name="pawpsdc">   4910.45253517 </i>
    <i name="pawaedc">  -4770.58603697 </i>
    <i name="eentropy">     -0.00000004 </i>
    <i name="bandstr">     20.34751967 </i>
    <i name="atom">    824.44989050 </i>
    <i name="e_fr_energy">    -43.20924721 </i>
    <i name="e_wo_entrp">    -43.20924717 </i>
    <i name="e_0_energy">    -43.20924719 </i>
   </energy>
  </scstep>
  <structure>
   <crystal>
    <varray name="basis" >
     <v>       5.46498243      -0.00000000      -0.00000000 </v>
     <v>      -0.00000000       5.46498243       0.00000000 </v>
     <v>      -0.00000000       0.00000000       5.46498243 </v>
    </varray>
    <i name="volume">    163.21734504 </i>
    <varray name="rec_basis" >
     <v>       0.18298321       0.00000000       0.00000000 </v>
     <v>       0.00000000       0.18298321      -0.00000000 </v>
     <v>       0.00000000      -0.00000000       0.18298321 </v>
    </varray>
   </crystal>
   <varray name="positions" >
    <v>       0.00000000       0.00000000       0.00000000 </v>
    <v>       0.00000000       0.50000000       0.50000000 </v>
    <v>       0.50000000       0.00000000       0.50000000 </v>
    <v>       0.50000000       0.50000000       0.00000000 </v>
    <v>       0.25000000       0.25000000       0.25000000 </v>
    <v>       0.75000000       0.75000000       0.25000000 </v>
    <v>       0.75000000       0.25000000       0.75000000 </v>
    <v>       0.25000000       0.75000000       0.75000000 </v>
   </varray>
  </structure>
  <varray name="forces" >
   <v>      -0.00000000      -0.00000000      -0.00000000 </v>
   <v>       0.00000000      -0.00000000      -0.00000000 </v>
   <v>       0.00000000       0.00000000      -0.00000000 </v>
   <v>      -0.00000000      -0.00000000      -0.00000000 </v>
   <v>       0.00000000       0.00000000       0.00000000 </v>
   <v>       0.00000000      -0.00000000       0.00000000 </v>
   <v>       0.00000000       0.00000000       0.00000000 </v>
   <v>       0.00000000      -0.00000000       0.00000000 </v>
  </varray>
  <varray name="stress" >
   <v>       0.26646596       0.00000000      -0.00000000 </v>
   <v>      -0.00000000       0.26646596       0.00000000 </v>
   <v>       0.00000000      -0.00000000       0.26646596 </v>
  </varray>
  <energy>
   <i name="e_fr_energy">    -43.20924721 </i>
   <i name="e_wo_entrp">    -43.20924719 </i>
   <i name="e_0_energy">     -0.00000004 </i>
  </energy>
  <time name="totalsc">    1.51    1.55</time>
  <eigenvalues>
   <array>
    <dimension dim="1">band</dimension>
    <dimension dim="2">kpoint</dimension>
    <dimension dim="3">spin</dimension>
    <field>eigene</field>
    <field>occ</field>
    <set>
     <set comment="spin 1">
      <set comment="kpoint 1">
       <r>   -6.1918    1.0000 </r>
       <r>   -2.1143    1.0000 </r>
       <r>   -2.1143    1.0000 </r>
       <r>   -2.1143    1.0000 </r>
       <r>   -2.1143    1.0000 </r>
       <r>   -2.1143    1.0000 </r>
       <r>   -2.1143    1.0000 </r>
       <r>    2.8418    1.0000 </r>
       <r>    2.8418    1.0000 </r>
       <r>    2.8418    1.0000 </r>
       <r>    2.8418    1.0000 </r>
       <r>    2.8418    1.0000 </r>
       <r>    2.8418    1.0000 </r>
       <r>    5.6624    1.0000 </r>
       <r>    5.6624    1.0000 </r>
       <r>    5.6624    1.0000 </r>
       <r>    6.4168    0.0000 </r>
       <r>    6.4168    0.0000 </r>
       <r>    6.4168    0.0000 </r>
       <r>    6.4168    0.0000 </r>
       <r>    6.4168    0.0000 </r>
       <r>    6.4168    0.0000 </r>
       <r>    8.2248    0.0000 </r>
       <r>    8.2248    0.0000 </r>
       <r>    8.2248    0.0000 </r>
      </set>
      <set comment="kpoint 2">
       <r>   -6.1563    1.0000 </r>
       <r>   -2.7841    1.0000 </r>
       <r>   -2.1029    1.0000 </r>
       <r>   -2.1029    1.0000 </r>
       <r>   -2.1029    1.0000 </r>
       <r>   -2.1029    1.0000 </r>
       <r>   -1.4019    1.0000 </r>
       <r>    2.7412    1.0000 </r>
       <r>    2.7412    1.0000 </r>
       <r>    2.7412    1.0000 </r>
       <r>    2.7412    1.0000 </r>
       <r>    2.8741    1.0000 </r>
       <r>    2.8741    1.0000 </r>
       <r>    5.4191    1.0000 </r>
       <r>    5.5166    1.0000 </r>
       <r>    5.5166    1.0000 </r>
       <r>    6.3007    0.0000 </r>
       <r>    6.6081    0.0000 </r>
       <r>    6.6081    0.0000 </r>
       <r>    6.6081    0.0000 </r>
       <r>    6.6081    0.0000 </r>
       <r>    6.6295    0.0000 </r>
       <r>    8.1383    0.0000 </r>
       <r>    8.4135    0.0000 </r>
       <r>    8.4135    0.0000 </r>
      </set>
      <set comment="kpoint 3">
       <r>   -6.0496    1.0000 </r>
       <r>   -3.4055    1.0000 </r>
       <r>   -2.0715    1.0000 </r>
       <r>   -2.0715    1.0000 </r>
       <r>   -2.0715    1.0000 </r>
       <r>   -2.0715    1.0000 </r>
       <r>   -0.6534    1.0000 </r>
       <r>    2.5011    1.0000 </r>
       <r>    2.5011    1.0000 </r>
       <r>    2.5011    1.0000 </r>
       <r>    2.5011    1.0000 </r>
       <r>    2.9706    1.0000 </r>
       <r>    2.9706    1.0000 </r>
       <r>    4.8394    1.0000 </r>
       <r>    5.1740    1.0000 </r>
       <r>    5.1740    1.0000 </r>
       <r>    6.2760    0.0000 </r>
       <r>    6.9466    0.0000 </r>
       <r>    7.1255    0.0000 </r>
       <r>    7.1255    0.0000 </r>
       <r>    7.1255    0.0000 </r>
       <r>    7.1255    0.0000 </r>
       <r>    7.9093    0.0000 </r>
       <r>    8.8878    0.0000 </r>
       <r>    8.8878    0.0000 </r>
      </set>
      <set comment="kpoint 4">
       <r>   -5.8724    1.0000 </r>
       <r>   -3.9725    1.0000 </r>
       <r>   -2.0287    1.0000 </r>
       <r>   -2.0287    1.0000 </r>
       <r>   -2.0287    1.0000 </r>
       <r>   -2.0287    1.0000 </r>
       <r>    0.1219    1.0000 </r>
       <r>    2.2300    1.0000 </r>
       <r>    2.2300    1.0000 </r>
       <r>    2.2300    1.0000 </r>
       <r>    2.2300    1.0000 </r>
       <r>    3.1305    1.0000 </r>
       <r>    3.1305    1.0000 </r>
       <r>    4.1158    1.0000 </r>
       <r>    4.7617    1.0000 </r>
       <r>    4.7617    1.0000 </r>
       <r>    6.3366    0.0000 </r>
       <r>    7.3630    0.0000 </r>
       <r>    7.6004    0.0000 </r>
       <r>    7.8625    0.0000 </r>
       <r>    7.8625    0.0000 </r>
       <r>    7.8625    0.0000 </r>
       <r>    7.8625    0.0000 </r>
       <r>    9.5164    0.0000 </r>
       <r>    9.5164    0.0000 </r>
      </set>
      <set comment="kpoint 5">
       <r>   -5.6255    1.0000 </r>
       <r>   -4.4809    1.0000 </r>
       <r>   -1.9875    1.0000 </r>
       <r>   -1.9875    1.0000 </r>
       <r>   -1.9875    1.0000 </r>
       <r>   -1.9875    1.0000 </r>
       <r>    0.9175    1.0000 </r>
       <r>    2.0097    1.0000 </r>
       <r>    2.0097    1.0000 </r>
       <r>    2.0097    1.0000 </r>
       <r>    2.0097    1.0000 </r>
       <r>    3.3358    1.0000 </r>
       <r>    3.3539    1.0000 </r>
       <r>    3.3539    1.0000 </r>
       <r>    4.3503    1.0000 </r>
       <r>    4.3503    1.0000 </r>
       <r>    6.4797    0.0000 </r>
       <r>    7.2701    0.0000 </r>
       <r>    7.8848    0.0000 </r>
       <r>    8.7372    0.0000 </r>
       <r>    8.7372    0.0000 </r>
       <r>    8.7372    0.0000 </r>
       <r>    8.7372    0.0000 </r>
       <r>    9.7567    0.0000 </r>
       <r>   10.2282    0.0000 </r>
      </set>
      <set comment="kpoint 6">
       <r>   -5.3101    1.0000 </r>
       <r>   -4.9279    1.0000 </r>
       <r>   -1.9619    1.0000 </r>
       <r>   -1.9619    1.0000 </r>
       <r>   -1.9619    1.0000 </r>
       <r>   -1.9619    1.0000 </r>
       <r>    1.7232    1.0000 </r>
       <r>    1.8880    1.0000 </r>
       <r>    1.8880    1.0000 </r>
       <r>    1.8880    1.0000 </r>
       <r>    1.8880    1.0000 </r>
       <r>    2.5318    1.0000 </r>
       <r>    3.6342    1.0000 </r>
       <r>    3.6342    1.0000 </r>
       <r>    3.9688    1.0000 </r>
       <r>    3.9688    1.0000 </r>
       <r>    6.6894    0.0000 </r>
       <r>    6.9587    0.0000 </r>
       <r>    8.4911    0.0000 </r>
       <r>    9.1522    0.0000 </r>
       <r>    9.6746    0.0000 </r>
       <r>    9.6746    0.0000 </r>
       <r>    9.6746    0.0000 </r>
       <r>    9.6746    0.0000 </r>
       <r>   10.9309    0.0000 </r>
      </set>
      <set comment="kpoint 7">
       <r>   -6.1208    1.0000 </r>
       <r>   -2.7656    1.0000 </r>
       <r>   -2.7656    1.0000 </r>
       <r>   -2.1485    1.0000 </r>
       <r>   -2.0369    1.0000 </r>
       <r>   -1.4000    1.0000 </r>
       <r>   -1.4000    1.0000 </r>
       <r>    2.4432    1.0000 </r>
       <r>    2.7587    1.0000 </r>
       <r>    2.7587    1.0000 </r>
       <r>    2.7931    1.0000 </r>
       <r>    2.7931    1.0000 </r>
       <r>    2.8989    1.0000 </r>
       <r>    5.0226    1.0000 </r>
       <r>    5.3719    1.0000 </r>
       <r>    5.6281    1.0000 </r>
       <r>    6.4825    0.0000 </r>
       <r>    6.5036    0.0000 </r>
       <r>    6.5036    0.0000 </r>
       <r>    6.8140    0.0000 </r>
       <r>    6.8140    0.0000 </r>
       <r>    7.0668    0.0000 </r>
       <r>    8.2985    0.0000 </r>
       <r>    8.3600    0.0000 </r>
       <r>    8.4095    0.0000 </r>
      </set>
      <set comment="kpoint 8">
       <r>   -6.0144    1.0000 </r>
       <r>   -3.3816    1.0000 </r>
       <r>   -2.7124    1.0000 </r>
       <r>   -2.1826    1.0000 </r>
       <r>   -1.9482    1.0000 </r>
       <r>   -1.3996    1.0000 </r>
       <r>   -0.6661    1.0000 </r>
       <r>    2.1129    1.0000 </r>
       <r>    2.4811    1.0000 </r>
       <r>    2.6015    1.0000 </r>
       <r>    2.8436    1.0000 </r>
       <r>    2.8560    1.0000 </r>
       <r>    2.9148    1.0000 </r>
       <r>    4.4430    1.0000 </r>
       <r>    5.0279    1.0000 </r>
       <r>    5.4249    1.0000 </r>
       <r>    6.4877    0.0000 </r>
       <r>    6.7418    0.0000 </r>
       <r>    7.0364    0.0000 </r>
       <r>    7.1189    0.0000 </r>
       <r>    7.3107    0.0000 </r>
       <r>    7.7389    0.0000 </r>
       <r>    8.1020    0.0000 </r>
       <r>    8.6641    0.0000 </r>
       <r>    8.8136    0.0000 </r>
      </set>
      <set comment="kpoint 9">
       <r>   -5.8377    1.0000 </r>
       <r>   -3.9454    1.0000 </r>
       <r>   -2.6305    1.0000 </r>
       <r>   -2.2172    1.0000 </r>
       <r>   -1.8403    1.0000 </r>
       <r>   -1.4101    1.0000 </r>
       <r>    0.0885    1.0000 </r>
       <r>    1.8339    1.0000 </r>
       <r>    2.1607    1.0000 </r>
       <r>    2.3974    1.0000 </r>
       <r>    2.6730    1.0000 </r>
       <r>    2.9947    1.0000 </r>
       <r>    3.1056    1.0000 </r>
       <r>    3.7927    1.0000 </r>
       <r>    4.6152    1.0000 </r>
       <r>    5.0089    1.0000 </r>
       <r>    6.5502    0.0000 </r>
       <r>    7.3148    0.0000 </r>
       <r>    7.5218    0.0000 </r>
       <r>    7.7854    0.0000 </r>
       <r>    7.8011    0.0000 </r>
       <r>    8.0275    0.0000 </r>
       <r>    8.5589    0.0000 </r>
       <r>    9.1618    0.0000 </r>
       <r>    9.4507    0.0000 </r>
      </set>
      <set comment="kpoint 10">
       <r>   -5.5915    1.0000 </r>
       <r>   -4.4514    1.0000 </r>
       <r>   -2.5309    1.0000 </r>
       <r>   -2.2652    1.0000 </r>
       <r>   -1.7218    1.0000 </r>
       <r>   -1.4442    1.0000 </r>
       <r>    0.8535    1.0000 </r>
       <r>    1.6558    1.0000 </r>
       <r>    1.8783    1.0000 </r>
       <r>    2.2559    1.0000 </r>
       <r>    2.4582    1.0000 </r>
       <r>    3.0973    1.0000 </r>
       <r>    3.2103    1.0000 </r>
       <r>    3.3665    1.0000 </r>
       <r>    4.2021    1.0000 </r>
       <r>    4.5389    1.0000 </r>
       <r>    6.6919    0.0000 </r>
       <r>    7.4780    0.0000 </r>
       <r>    8.0249    0.0000 </r>
       <r>    8.1056    0.0000 </r>
       <r>    8.6706    0.0000 </r>
       <r>    8.8838    0.0000 </r>
       <r>    9.4778    0.0000 </r>
       <r>    9.6249    0.0000 </r>
       <r>   10.1788    0.0000 </r>
      </set>
      <set comment="kpoint 11">
       <r>   -5.2771    1.0000 </r>
       <r>   -4.8963    1.0000 </r>
       <r>   -2.4276    1.0000 </r>
       <r>   -2.3355    1.0000 </r>
       <r>   -1.6065    1.0000 </r>
       <r>   -1.5103    1.0000 </r>
       <r>    1.6039    1.0000 </r>
       <r>    1.6172    1.0000 </r>
       <r>    1.6825    1.0000 </r>
       <r>    2.2178    1.0000 </r>
       <r>    2.2917    1.0000 </r>
       <r>    2.3688    1.0000 </r>
       <r>    3.4877    1.0000 </r>
       <r>    3.6963    1.0000 </r>
       <r>    3.8213    1.0000 </r>
       <r>    4.0905    1.0000 </r>
       <r>    6.9011    0.0000 </r>
       <r>    7.1693    0.0000 </r>
       <r>    8.6163    0.0000 </r>
       <r>    9.0235    0.0000 </r>
       <r>    9.2502    0.0000 </r>
       <r>    9.6383    0.0000 </r>
       <r>    9.6980    0.0000 </r>
       <r>   10.3108    0.0000 </r>
       <r>   10.3124    0.0000 </r>
      </set>
      <set comment="kpoint 12">
       <r>   -5.9089    1.0000 </r>
       <r>   -3.3128    1.0000 </r>
       <r>   -3.3128    1.0000 </r>
       <r>   -2.2937    1.0000 </r>
       <r>   -1.8054    1.0000 </r>
       <r>   -0.7092    1.0000 </r>
       <r>   -0.7092    1.0000 </r>
       <r>    1.7747    1.0000 </r>
       <r>    2.5387    1.0000 </r>
       <r>    2.5387    1.0000 </r>
       <r>    2.7864    1.0000 </r>
       <r>    2.7864    1.0000 </r>
       <r>    3.0683    1.0000 </r>
       <r>    3.8638    1.0000 </r>
       <r>    4.6814    1.0000 </r>
       <r>    5.5168    1.0000 </r>
       <r>    6.6771    0.0000 </r>
       <r>    7.0294    0.0000 </r>
       <r>    7.0294    0.0000 </r>
       <r>    7.5860    0.0000 </r>
       <r>    7.5860    0.0000 </r>
       <r>    8.4995    0.0000 </r>
       <r>    8.5194    0.0000 </r>
       <r>    8.5545    0.0000 </r>
       <r>    8.6850    0.0000 </r>
      </set>
      <set comment="kpoint 13">
       <r>   -5.7336    1.0000 </r>
       <r>   -3.8651    1.0000 </r>
       <r>   -3.2028    1.0000 </r>
       <r>   -2.4173    1.0000 </r>
       <r>   -1.6399    1.0000 </r>
       <r>   -0.7898    1.0000 </r>
       <r>   -0.0135    1.0000 </r>
       <r>    1.5368    1.0000 </r>
       <r>    2.1819    1.0000 </r>
       <r>    2.6672    1.0000 </r>
       <r>    2.6703    1.0000 </r>
       <r>    3.0571    1.0000 </r>
       <r>    3.0795    1.0000 </r>
       <r>    3.2540    1.0000 </r>
       <r>    4.2655    1.0000 </r>
       <r>    5.2814    1.0000 </r>
       <r>    6.9941    0.0000 </r>
       <r>    7.1003    0.0000 </r>
       <r>    7.7855    0.0000 </r>
       <r>    7.9599    0.0000 </r>
       <r>    8.2775    0.0000 </r>
       <r>    8.3083    0.0000 </r>
       <r>    8.7862    0.0000 </r>
       <r>    9.2759    0.0000 </r>
       <r>    9.3692    0.0000 </r>
      </set>
      <set comment="kpoint 14">
       <r>   -5.4898    1.0000 </r>
       <r>   -4.3631    1.0000 </r>
       <r>   -3.0597    1.0000 </r>
       <r>   -2.5610    1.0000 </r>
       <r>   -1.4560    1.0000 </r>
       <r>   -0.9136    1.0000 </r>
       <r>    0.6745    1.0000 </r>
       <r>    1.4264    1.0000 </r>
       <r>    1.8537    1.0000 </r>
       <r>    2.6179    1.0000 </r>
       <r>    2.6301    1.0000 </r>
       <r>    2.8723    1.0000 </r>
       <r>    2.9507    1.0000 </r>
       <r>    3.4132    1.0000 </r>
       <r>    3.8492    1.0000 </r>
       <r>    4.8422    1.0000 </r>
       <r>    7.2435    0.0000 </r>
       <r>    7.6233    0.0000 </r>
       <r>    8.0042    0.0000 </r>
       <r>    8.4303    0.0000 </r>
       <r>    8.6773    0.0000 </r>
       <r>    9.1117    0.0000 </r>
       <r>    9.2275    0.0000 </r>
       <r>   10.0269    0.0000 </r>
       <r>   10.3047    0.0000 </r>
      </set>
      <set comment="kpoint 15">
       <r>   -5.1784    1.0000 </r>
       <r>   -4.8021    1.0000 </r>
       <r>   -2.8953    1.0000 </r>
       <r>   -2.7240    1.0000 </r>
       <r>   -1.2632    1.0000 </r>
       <r>   -1.0766    1.0000 </r>
       <r>    1.3452    1.0000 </r>
       <r>    1.4503    1.0000 </r>
       <r>    1.5993    1.0000 </r>
       <r>    1.9968    1.0000 </r>
       <r>    2.6611    1.0000 </r>
       <r>    2.7856    1.0000 </r>
       <r>    3.1405    1.0000 </r>
       <r>    3.4700    1.0000 </r>
       <r>    3.8466    1.0000 </r>
       <r>    4.3387    1.0000 </r>
       <r>    7.4508    0.0000 </r>
       <r>    7.7117    0.0000 </r>
       <r>    8.4531    0.0000 </r>
       <r>    8.9816    0.0000 </r>
       <r>    9.3771    0.0000 </r>
       <r>    9.4779    0.0000 </r>
       <r>    9.6541    0.0000 </r>
       <r>   10.1385    0.0000 </r>
       <r>   10.1986    0.0000 </r>
      </set>
      <set comment="kpoint 16">
       <r>   -5.5610    1.0000 </r>
       <r>   -3.7349    1.0000 </r>
       <r>   -3.7349    1.0000 </r>
       <r>   -2.6365    1.0000 </r>
       <r>   -1.4200    1.0000 </r>
       <r>   -0.1807    1.0000 </r>
       <r>   -0.1807    1.0000 </r>
       <r>    1.3659    1.0000 </r>
       <r>    2.2876    1.0000 </r>
       <r>    2.2876    1.0000 </r>
       <r>    2.6834    1.0000 </r>
       <r>    3.0382    1.0000 </r>
       <r>    3.0382    1.0000 </r>
       <r>    3.3414    1.0000 </r>
       <r>    3.8443    1.0000 </r>
       <r>    5.3023    1.0000 </r>
       <r>    6.9961    0.0000 </r>
       <r>    7.8592    0.0000 </r>
       <r>    7.8592    0.0000 </r>
       <r>    8.6210    0.0000 </r>
       <r>    8.6210    0.0000 </r>
       <r>    8.6583    0.0000 </r>
       <r>    8.8870    0.0000 </r>
       <r>    9.1397    0.0000 </r>
       <r>   10.2643    0.0000 </r>
      </set>
      <set comment="kpoint 17">
       <r>   -5.3209    1.0000 </r>
       <r>   -4.2181    1.0000 </r>
       <r>   -3.5602    1.0000 </r>
       <r>   -2.8731    1.0000 </r>
       <r>   -1.1791    1.0000 </r>
       <r>   -0.4018    1.0000 </r>
       <r>    0.4103    1.0000 </r>
       <r>    1.3303    1.0000 </r>
       <r>    1.9261    1.0000 </r>
       <r>    2.1145    1.0000 </r>
       <r>    2.4719    1.0000 </r>
       <r>    3.0819    1.0000 </r>
       <r>    3.3998    1.0000 </r>
       <r>    3.4289    1.0000 </r>
       <r>    3.4996    1.0000 </r>
       <r>    5.0273    1.0000 </r>
       <r>    7.3602    0.0000 </r>
       <r>    8.0000    0.0000 </r>
       <r>    8.7120    0.0000 </r>
       <r>    8.7489    0.0000 </r>
       <r>    8.8255    0.0000 </r>
       <r>    9.0566    0.0000 </r>
       <r>    9.4120    0.0000 </r>
       <r>    9.8201    0.0000 </r>
       <r>    9.9407    0.0000 </r>
      </set>
      <set comment="kpoint 18">
       <r>   -5.0154    1.0000 </r>
       <r>   -4.6467    1.0000 </r>
       <r>   -3.3500    1.0000 </r>
       <r>   -3.1161    1.0000 </r>
       <r>   -0.9208    1.0000 </r>
       <r>   -0.6557    1.0000 </r>
       <r>    0.9843    1.0000 </r>
       <r>    1.4231    1.0000 </r>
       <r>    1.5490    1.0000 </r>
       <r>    1.6290    1.0000 </r>
       <r>    2.7286    1.0000 </r>
       <r>    3.0504    1.0000 </r>
       <r>    3.1856    1.0000 </r>
       <r>    3.3154    1.0000 </r>
       <r>    4.0240    1.0000 </r>
       <r>    4.5607    1.0000 </r>
       <r>    8.0269    0.0000 </r>
       <r>    8.1972    0.0000 </r>
       <r>    8.4411    0.0000 </r>
       <r>    8.8840    0.0000 </r>
       <r>    9.1988    0.0000 </r>
       <r>    9.5165    0.0000 </r>
       <r>    9.7229    0.0000 </r>
       <r>    9.8078    0.0000 </r>
       <r>   10.2445    0.0000 </r>
      </set>
      <set comment="kpoint 19">
       <r>   -5.0868    1.0000 </r>
       <r>   -4.0208    1.0000 </r>
       <r>   -4.0208    1.0000 </r>
       <r>   -3.1899    1.0000 </r>
       <r>   -0.8836    1.0000 </r>
       <r>    0.0957    1.0000 </r>
       <r>    0.0957    1.0000 </r>
       <r>    1.3630    1.0000 </r>
       <r>    1.5947    1.0000 </r>
       <r>    2.0874    1.0000 </r>
       <r>    2.0874    1.0000 </r>
       <r>    3.0137    1.0000 </r>
       <r>    3.6192    1.0000 </r>
       <r>    3.6192    1.0000 </r>
       <r>    3.7016    1.0000 </r>
       <r>    4.9759    1.0000 </r>
       <r>    7.4091    0.0000 </r>
       <r>    8.6120    0.0000 </r>
       <r>    8.8803    0.0000 </r>
       <r>    8.8803    0.0000 </r>
       <r>    9.3527    0.0000 </r>
       <r>    9.3527    0.0000 </r>
       <r>    9.4011    0.0000 </r>
       <r>    9.7016    0.0000 </r>
       <r>    9.8537    0.0000 </r>
      </set>
      <set comment="kpoint 20">
       <r>   -4.7897    1.0000 </r>
       <r>   -4.4326    1.0000 </r>
       <r>   -3.7771    1.0000 </r>
       <r>   -3.4960    1.0000 </r>
       <r>   -0.5678    1.0000 </r>
       <r>   -0.2375    1.0000 </r>
       <r>    0.5886    1.0000 </r>
       <r>    1.0860    1.0000 </r>
       <r>    1.5118    1.0000 </r>
       <r>    1.7595    1.0000 </r>
       <r>    2.3287    1.0000 </r>
       <r>    2.6413    1.0000 </r>
       <r>    3.7386    1.0000 </r>
       <r>    3.7972    1.0000 </r>
       <r>    4.1751    1.0000 </r>
       <r>    4.6638    1.0000 </r>
       <r>    7.8087    0.0000 </r>
       <r>    8.4924    0.0000 </r>
       <r>    8.6635    0.0000 </r>
       <r>    8.9375    0.0000 </r>
       <r>    9.0637    0.0000 </r>
       <r>    9.2793    0.0000 </r>
       <r>    9.8445    0.0000 </r>
       <r>   10.3290    0.0000 </r>
       <r>   10.4617    0.0000 </r>
      </set>
      <set comment="kpoint 21">
       <r>   -4.5046    1.0000 </r>
       <r>   -4.1649    1.0000 </r>
       <r>   -4.1649    1.0000 </r>
       <r>   -3.8497    1.0000 </r>
       <r>   -0.1984    1.0000 </r>
       <r>    0.1891    1.0000 </r>
       <r>    0.1891    1.0000 </r>
       <r>    0.6298    1.0000 </r>
       <r>    1.7018    1.0000 </r>
       <r>    1.9793    1.0000 </r>
       <r>    1.9793    1.0000 </r>
       <r>    2.2778    1.0000 </r>
       <r>    4.1232    1.0000 </r>
       <r>    4.2348    1.0000 </r>
       <r>    4.2348    1.0000 </r>
       <r>    4.5652    1.0000 </r>
       <r>    7.8807    0.0000 </r>
       <r>    8.2805    0.0000 </r>
       <r>    8.2805    0.0000 </r>
       <r>    8.3266    0.0000 </r>
       <r>   10.0007    0.0000 </r>
       <r>   10.0007    0.0000 </r>
       <r>   10.0551    0.0000 </r>
       <r>   10.3945    0.0000 </r>
       <r>   10.8486    0.0000 </r>
      </set>
      <set comment="kpoint 22">
       <r>   -6.0853    1.0000 </r>
       <r>   -2.7502    1.0000 </r>
       <r>   -2.7502    1.0000 </r>
       <r>   -2.7502    1.0000 </r>
       <r>   -1.3991    1.0000 </r>
       <r>   -1.3991    1.0000 </r>
       <r>   -1.3991    1.0000 </r>
       <r>    2.4837    1.0000 </r>
       <r>    2.4837    1.0000 </r>
       <r>    2.4837    1.0000 </r>
       <r>    2.9308    1.0000 </r>
       <r>    2.9308    1.0000 </r>
       <r>    2.9308    1.0000 </r>
       <r>    4.6701    1.0000 </r>
       <r>    5.4954    1.0000 </r>
       <r>    5.4954    1.0000 </r>
       <r>    6.4963    0.0000 </r>
       <r>    6.4963    0.0000 </r>
       <r>    6.4963    0.0000 </r>
       <r>    7.1433    0.0000 </r>
       <r>    7.1433    0.0000 </r>
       <r>    7.1433    0.0000 </r>
       <r>    8.2143    0.0000 </r>
       <r>    8.4687    0.0000 </r>
       <r>    8.4687    0.0000 </r>
      </set>
      <set comment="kpoint 23">
       <r>   -5.9793    1.0000 </r>
       <r>   -3.3598    1.0000 </r>
       <r>   -2.7070    1.0000 </r>
       <r>   -2.7070    1.0000 </r>
       <r>   -1.3980    1.0000 </r>
       <r>   -1.3980    1.0000 </r>
       <r>   -0.6827    1.0000 </r>
       <r>    2.1618    1.0000 </r>
       <r>    2.1618    1.0000 </r>
       <r>    2.6067    1.0000 </r>
       <r>    2.8921    1.0000 </r>
       <r>    2.8921    1.0000 </r>
       <r>    3.0262    1.0000 </r>
       <r>    4.1041    1.0000 </r>
       <r>    5.1736    1.0000 </r>
       <r>    5.3656    1.0000 </r>
       <r>    6.5475    0.0000 </r>
       <r>    6.7703    0.0000 </r>
       <r>    6.7703    0.0000 </r>
       <r>    7.3754    0.0000 </r>
       <r>    7.7997    0.0000 </r>
       <r>    7.7997    0.0000 </r>
       <r>    8.1819    0.0000 </r>
       <r>    8.4854    0.0000 </r>
       <r>    8.9011    0.0000 </r>
      </set>
      <set comment="kpoint 24">
       <r>   -5.8031    1.0000 </r>
       <r>   -3.9192    1.0000 </r>
       <r>   -2.6461    1.0000 </r>
       <r>   -2.6461    1.0000 </r>
       <r>   -1.4019    1.0000 </r>
       <r>   -1.4019    1.0000 </r>
       <r>    0.0475    1.0000 </r>
       <r>    1.8864    1.0000 </r>
       <r>    1.8864    1.0000 </r>
       <r>    2.7241    1.0000 </r>
       <r>    2.7241    1.0000 </r>
       <r>    2.8126    1.0000 </r>
       <r>    3.1849    1.0000 </r>
       <r>    3.4911    1.0000 </r>
       <r>    4.7801    1.0000 </r>
       <r>    4.9558    1.0000 </r>
       <r>    6.6553    0.0000 </r>
       <r>    7.3485    0.0000 </r>
       <r>    7.3485    0.0000 </r>
       <r>    7.7321    0.0000 </r>
       <r>    7.9445    0.0000 </r>
       <r>    8.6119    0.0000 </r>
       <r>    8.6119    0.0000 </r>
       <r>    8.9129    0.0000 </r>
       <r>    9.4772    0.0000 </r>
      </set>
      <set comment="kpoint 25">
       <r>   -5.5576    1.0000 </r>
       <r>   -4.4222    1.0000 </r>
       <r>   -2.5846    1.0000 </r>
       <r>   -2.5846    1.0000 </r>
       <r>   -1.4120    1.0000 </r>
       <r>   -1.4120    1.0000 </r>
       <r>    0.7780    1.0000 </r>
       <r>    1.6984    1.0000 </r>
       <r>    1.6984    1.0000 </r>
       <r>    2.5392    1.0000 </r>
       <r>    2.5392    1.0000 </r>
       <r>    2.8519    1.0000 </r>
       <r>    3.1036    1.0000 </r>
       <r>    3.4043    1.0000 </r>
       <r>    4.3816    1.0000 </r>
       <r>    4.4423    1.0000 </r>
       <r>    6.8227    0.0000 </r>
       <r>    7.6331    0.0000 </r>
       <r>    8.1370    0.0000 </r>
       <r>    8.1370    0.0000 </r>
       <r>    8.2035    0.0000 </r>
       <r>    9.4641    0.0000 </r>
       <r>    9.5235    0.0000 </r>
       <r>    9.5235    0.0000 </r>
       <r>   10.1307    0.0000 </r>
      </set>
      <set comment="kpoint 26">
       <r>   -5.2444    1.0000 </r>
       <r>   -4.8650    1.0000 </r>
       <r>   -2.5448    1.0000 </r>
       <r>   -2.5448    1.0000 </r>
       <r>   -1.4220    1.0000 </r>
       <r>   -1.4220    1.0000 </r>
       <r>    1.4944    1.0000 </r>
       <r>    1.6070    1.0000 </r>
       <r>    1.6070    1.0000 </r>
       <r>    2.1864    1.0000 </r>
       <r>    2.4231    1.0000 </r>
       <r>    2.4231    1.0000 </r>
       <r>    3.4789    1.0000 </r>
       <r>    3.6809    1.0000 </r>
       <r>    3.9322    1.0000 </r>
       <r>    4.0090    1.0000 </r>
       <r>    7.0491    0.0000 </r>
       <r>    7.3252    0.0000 </r>
       <r>    8.7681    0.0000 </r>
       <r>    9.0509    0.0000 </r>
       <r>    9.0509    0.0000 </r>
       <r>    9.3610    0.0000 </r>
       <r>   10.0355    0.0000 </r>
       <r>   10.0355    0.0000 </r>
       <r>   10.5233    0.0000 </r>
      </set>
      <set comment="kpoint 27">
       <r>   -5.8741    1.0000 </r>
       <r>   -3.2956    1.0000 </r>
       <r>   -3.2956    1.0000 </r>
       <r>   -2.6972    1.0000 </r>
       <r>   -1.3908    1.0000 </r>
       <r>   -0.7349    1.0000 </r>
       <r>   -0.7349    1.0000 </r>
       <r>    1.8424    1.0000 </r>
       <r>    2.3074    1.0000 </r>
       <r>    2.3074    1.0000 </r>
       <r>    3.0020    1.0000 </r>
       <r>    3.0020    1.0000 </r>
       <r>    3.0984    1.0000 </r>
       <r>    3.5466    1.0000 </r>
       <r>    4.9226    1.0000 </r>
       <r>    5.4153    1.0000 </r>
       <r>    6.7172    0.0000 </r>
       <r>    6.8602    0.0000 </r>
       <r>    6.8602    0.0000 </r>
       <r>    7.9811    0.0000 </r>
       <r>    7.9811    0.0000 </r>
       <r>    8.1785    0.0000 </r>
       <r>    8.5478    0.0000 </r>
       <r>    8.6356    0.0000 </r>
       <r>    8.9228    0.0000 </r>
      </set>
      <set comment="kpoint 28">
       <r>   -5.6995    1.0000 </r>
       <r>   -3.8416    1.0000 </r>
       <r>   -3.1953    1.0000 </r>
       <r>   -2.6995    1.0000 </r>
       <r>   -1.3685    1.0000 </r>
       <r>   -0.8259    1.0000 </r>
       <r>   -0.0730    1.0000 </r>
       <r>    1.6240    1.0000 </r>
       <r>    2.0388    1.0000 </r>
       <r>    2.5471    1.0000 </r>
       <r>    2.8816    1.0000 </r>
       <r>    2.9597    1.0000 </r>
       <r>    3.1135    1.0000 </r>
       <r>    3.1883    1.0000 </r>
       <r>    4.5210    1.0000 </r>
       <r>    5.1941    1.0000 </r>
       <r>    7.0071    0.0000 </r>
       <r>    7.0353    0.0000 </r>
       <r>    7.4487    0.0000 </r>
       <r>    8.2299    0.0000 </r>
       <r>    8.2781    0.0000 </r>
       <r>    8.6927    0.0000 </r>
       <r>    8.7696    0.0000 </r>
       <r>    9.3651    0.0000 </r>
       <r>    9.4144    0.0000 </r>
      </set>
      <set comment="kpoint 29">
       <r>   -5.4564    1.0000 </r>
       <r>   -4.3356    1.0000 </r>
       <r>   -3.0701    1.0000 </r>
       <r>   -2.7359    1.0000 </r>
       <r>   -1.3164    1.0000 </r>
       <r>   -0.9517    1.0000 </r>
       <r>    0.5710    1.0000 </r>
       <r>    1.5259    1.0000 </r>
       <r>    1.8191    1.0000 </r>
       <r>    2.3731    1.0000 </r>
       <r>    2.7791    1.0000 </r>
       <r>    2.8708    1.0000 </r>
       <r>    2.9958    1.0000 </r>
       <r>    3.4584    1.0000 </r>
       <r>    4.0926    1.0000 </r>
       <r>    4.7588    1.0000 </r>
       <r>    7.2080    0.0000 </r>
       <r>    7.6585    0.0000 </r>
       <r>    8.0279    0.0000 </r>
       <r>    8.2331    0.0000 </r>
       <r>    8.6894    0.0000 </r>
       <r>    9.1097    0.0000 </r>
       <r>    9.6531    0.0000 </r>
       <r>    9.9762    0.0000 </r>
       <r>   10.3356    0.0000 </r>
      </set>
      <set comment="kpoint 30">
       <r>   -5.1464    1.0000 </r>
       <r>   -4.7719    1.0000 </r>
       <r>   -2.9367    1.0000 </r>
       <r>   -2.8179    1.0000 </r>
       <r>   -1.2224    1.0000 </r>
       <r>   -1.0929    1.0000 </r>
       <r>    1.1897    1.0000 </r>
       <r>    1.5424    1.0000 </r>
       <r>    1.6494    1.0000 </r>
       <r>    1.7868    1.0000 </r>
       <r>    2.7671    1.0000 </r>
       <r>    2.8539    1.0000 </r>
       <r>    3.2541    1.0000 </r>
       <r>    3.6672    1.0000 </r>
       <r>    3.8199    1.0000 </r>
       <r>    4.2686    1.0000 </r>
       <r>    7.4562    0.0000 </r>
       <r>    7.7384    0.0000 </r>
       <r>    8.4877    0.0000 </r>
       <r>    9.1302    0.0000 </r>
       <r>    9.1935    0.0000 </r>
       <r>    9.4738    0.0000 </r>
       <r>    9.5529    0.0000 </r>
       <r>   10.1425    0.0000 </r>
       <r>   10.1606    0.0000 </r>
      </set>
      <set comment="kpoint 31">
       <r>   -5.5275    1.0000 </r>
       <r>   -3.7168    1.0000 </r>
       <r>   -3.7168    1.0000 </r>
       <r>   -2.8036    1.0000 </r>
       <r>   -1.2924    1.0000 </r>
       <r>   -0.2622    1.0000 </r>
       <r>   -0.2622    1.0000 </r>
       <r>    1.4855    1.0000 </r>
       <r>    2.2742    1.0000 </r>
       <r>    2.2742    1.0000 </r>
       <r>    2.4028    1.0000 </r>
       <r>    3.1527    1.0000 </r>
       <r>    3.1527    1.0000 </r>
       <r>    3.3695    1.0000 </r>
       <r>    4.1194    1.0000 </r>
       <r>    5.2421    1.0000 </r>
       <r>    7.0338    0.0000 </r>
       <r>    7.6052    0.0000 </r>
       <r>    7.6052    0.0000 </r>
       <r>    8.3260    0.0000 </r>
       <r>    8.9207    0.0000 </r>
       <r>    9.0312    0.0000 </r>
       <r>    9.0312    0.0000 </r>
       <r>    9.2748    0.0000 </r>
       <r>   10.3071    0.0000 </r>
      </set>
      <set comment="kpoint 32">
       <r>   -5.2887    1.0000 </r>
       <r>   -4.1940    1.0000 </r>
       <r>   -3.5521    1.0000 </r>
       <r>   -2.9605    1.0000 </r>
       <r>   -1.1601    1.0000 </r>
       <r>   -0.4964    1.0000 </r>
       <r>    0.2788    1.0000 </r>
       <r>    1.4746    1.0000 </r>
       <r>    1.8558    1.0000 </r>
       <r>    2.0061    1.0000 </r>
       <r>    2.5713    1.0000 </r>
       <r>    3.1622    1.0000 </r>
       <r>    3.4303    1.0000 </r>
       <r>    3.5384    1.0000 </r>
       <r>    3.6959    1.0000 </r>
       <r>    4.9802    1.0000 </r>
       <r>    7.3974    0.0000 </r>
       <r>    7.8125    0.0000 </r>
       <r>    8.3857    0.0000 </r>
       <r>    8.4358    0.0000 </r>
       <r>    8.9176    0.0000 </r>
       <r>    9.3986    0.0000 </r>
       <r>    9.7517    0.0000 </r>
       <r>    9.7760    0.0000 </r>
       <r>   10.0631    0.0000 </r>
      </set>
      <set comment="kpoint 33">
       <r>   -4.9847    1.0000 </r>
       <r>   -4.6186    1.0000 </r>
       <r>   -3.3585    1.0000 </r>
       <r>   -3.1537    1.0000 </r>
       <r>   -0.9720    1.0000 </r>
       <r>   -0.7430    1.0000 </r>
       <r>    0.8034    1.0000 </r>
       <r>    1.3249    1.0000 </r>
       <r>    1.5764    1.0000 </r>
       <r>    1.7638    1.0000 </r>
       <r>    2.9129    1.0000 </r>
       <r>    3.2407    1.0000 </r>
       <r>    3.2898    1.0000 </r>
       <r>    3.3545    1.0000 </r>
       <r>    4.0154    1.0000 </r>
       <r>    4.5268    1.0000 </r>
       <r>    8.0599    0.0000 </r>
       <r>    8.0605    0.0000 </r>
       <r>    8.3138    0.0000 </r>
       <r>    8.9138    0.0000 </r>
       <r>    9.1951    0.0000 </r>
       <r>    9.2995    0.0000 </r>
       <r>    9.6765    0.0000 </r>
       <r>    9.9179    0.0000 </r>
       <r>   10.2941    0.0000 </r>
      </set>
      <set comment="kpoint 34">
       <r>   -5.0562    1.0000 </r>
       <r>   -4.0024    1.0000 </r>
       <r>   -4.0024    1.0000 </r>
       <r>   -3.2267    1.0000 </r>
       <r>   -0.9469    1.0000 </r>
       <r>   -0.0506    1.0000 </r>
       <r>   -0.0506    1.0000 </r>
       <r>    1.3474    1.0000 </r>
       <r>    1.5422    1.0000 </r>
       <r>    2.2519    1.0000 </r>
       <r>    2.2519    1.0000 </r>
       <r>    3.2869    1.0000 </r>
       <r>    3.6502    1.0000 </r>
       <r>    3.6502    1.0000 </r>
       <r>    3.7257    1.0000 </r>
       <r>    4.9516    1.0000 </r>
       <r>    7.4447    0.0000 </r>
       <r>    8.4526    0.0000 </r>
       <r>    8.5845    0.0000 </r>
       <r>    8.5845    0.0000 </r>
       <r>    9.3350    0.0000 </r>
       <r>    9.3673    0.0000 </r>
       <r>    9.3673    0.0000 </r>
       <r>    9.5708    0.0000 </r>
       <r>   10.2575    0.0000 </r>
      </set>
      <set comment="kpoint 35">
       <r>   -4.7614    1.0000 </r>
       <r>   -4.4082    1.0000 </r>
       <r>   -3.7685    1.0000 </r>
       <r>   -3.5041    1.0000 </r>
       <r>   -0.6837    1.0000 </r>
       <r>   -0.3799    1.0000 </r>
       <r>    0.3977    1.0000 </r>
       <r>    0.8613    1.0000 </r>
       <r>    1.7092    1.0000 </r>
       <r>    1.9539    1.0000 </r>
       <r>    2.5510    1.0000 </r>
       <r>    2.8997    1.0000 </r>
       <r>    3.7652    1.0000 </r>
       <r>    3.8204    1.0000 </r>
       <r>    4.1786    1.0000 </r>
       <r>    4.6527    1.0000 </r>
       <r>    7.8359    0.0000 </r>
       <r>    8.5099    0.0000 </r>
       <r>    8.5591    0.0000 </r>
       <r>    8.7448    0.0000 </r>
       <r>    9.0183    0.0000 </r>
       <r>    9.1708    0.0000 </r>
       <r>    9.4810    0.0000 </r>
       <r>   10.2065    0.0000 </r>
       <r>   10.4585    0.0000 </r>
      </set>
      <set comment="kpoint 36">
       <r>   -4.4801    1.0000 </r>
       <r>   -4.1464    1.0000 </r>
       <r>   -4.1464    1.0000 </r>
       <r>   -3.8411    1.0000 </r>
       <r>   -0.3576    1.0000 </r>
       <r>    0.0055    1.0000 </r>
       <r>    0.0055    1.0000 </r>
       <r>    0.4187    1.0000 </r>
       <r>    1.9270    1.0000 </r>
       <r>    2.2140    1.0000 </r>
       <r>    2.2140    1.0000 </r>
       <r>    2.5335    1.0000 </r>
       <r>    4.1388    1.0000 </r>
       <r>    4.2458    1.0000 </r>
       <r>    4.2458    1.0000 </r>
       <r>    4.5664    1.0000 </r>
       <r>    7.8990    0.0000 </r>
       <r>    8.2820    0.0000 </r>
       <r>    8.2820    0.0000 </r>
       <r>    8.2990    0.0000 </r>
       <r>    9.7054    0.0000 </r>
       <r>    9.7054    0.0000 </r>
       <r>    9.8955    0.0000 </r>
       <r>   10.0118    0.0000 </r>
       <r>   10.6079    0.0000 </r>
      </set>
      <set comment="kpoint 37">
       <r>   -5.7700    1.0000 </r>
       <r>   -3.2474    1.0000 </r>
       <r>   -3.2474    1.0000 </r>
       <r>   -3.2474    1.0000 </r>
       <r>   -0.8091    1.0000 </r>
       <r>   -0.8091    1.0000 </r>
       <r>   -0.8091    1.0000 </r>
       <r>    2.0475    1.0000 </r>
       <r>    2.0475    1.0000 </r>
       <r>    2.0475    1.0000 </r>
       <r>    2.9984    1.0000 </r>
       <r>    3.1911    1.0000 </r>
       <r>    3.1911    1.0000 </r>
       <r>    3.1911    1.0000 </r>
       <r>    5.1558    1.0000 </r>
       <r>    5.1558    1.0000 </r>
       <r>    6.8387    0.0000 </r>
       <r>    6.8387    0.0000 </r>
       <r>    6.8387    0.0000 </r>
       <r>    7.8946    0.0000 </r>
       <r>    8.6994    0.0000 </r>
       <r>    8.6994    0.0000 </r>
       <r>    8.6994    0.0000 </r>
       <r>    8.9409    0.0000 </r>
       <r>    8.9409    0.0000 </r>
      </set>
      <set comment="kpoint 38">
       <r>   -5.5972    1.0000 </r>
       <r>   -3.7732    1.0000 </r>
       <r>   -3.1789    1.0000 </r>
       <r>   -3.1789    1.0000 </r>
       <r>   -0.9193    1.0000 </r>
       <r>   -0.9193    1.0000 </r>
       <r>   -0.2376    1.0000 </r>
       <r>    1.8789    1.0000 </r>
       <r>    1.8789    1.0000 </r>
       <r>    2.3869    1.0000 </r>
       <r>    2.4338    1.0000 </r>
       <r>    3.2166    1.0000 </r>
       <r>    3.2166    1.0000 </r>
       <r>    3.3426    1.0000 </r>
       <r>    4.8186    1.0000 </r>
       <r>    5.0287    1.0000 </r>
       <r>    7.0260    0.0000 </r>
       <r>    7.1539    0.0000 </r>
       <r>    7.1539    0.0000 </r>
       <r>    7.9495    0.0000 </r>
       <r>    8.8233    0.0000 </r>
       <r>    8.9500    0.0000 </r>
       <r>    9.3584    0.0000 </r>
       <r>    9.5492    0.0000 </r>
       <r>    9.5492    0.0000 </r>
      </set>
      <set comment="kpoint 39">
       <r>   -5.3568    1.0000 </r>
       <r>   -4.2546    1.0000 </r>
       <r>   -3.1090    1.0000 </r>
       <r>   -3.1090    1.0000 </r>
       <r>   -1.0329    1.0000 </r>
       <r>   -1.0329    1.0000 </r>
       <r>    0.3075    1.0000 </r>
       <r>    1.8009    1.0000 </r>
       <r>    1.8009    1.0000 </r>
       <r>    1.8836    1.0000 </r>
       <r>    2.8491    1.0000 </r>
       <r>    3.1380    1.0000 </r>
       <r>    3.1380    1.0000 </r>
       <r>    3.5508    1.0000 </r>
       <r>    4.4630    1.0000 </r>
       <r>    4.5838    1.0000 </r>
       <r>    7.2715    0.0000 </r>
       <r>    7.7725    0.0000 </r>
       <r>    7.7725    0.0000 </r>
       <r>    8.0531    0.0000 </r>
       <r>    8.9213    0.0000 </r>
       <r>    9.3036    0.0000 </r>
       <r>    9.8389    0.0000 </r>
       <r>   10.3622    0.0000 </r>
       <r>   10.3622    0.0000 </r>
      </set>
      <set comment="kpoint 40">
       <r>   -5.0510    1.0000 </r>
       <r>   -4.6822    1.0000 </r>
       <r>   -3.0637    1.0000 </r>
       <r>   -3.0637    1.0000 </r>
       <r>   -1.1066    1.0000 </r>
       <r>   -1.1066    1.0000 </r>
       <r>    0.8321    1.0000 </r>
       <r>    1.3521    1.0000 </r>
       <r>    1.7793    1.0000 </r>
       <r>    1.7793    1.0000 </r>
       <r>    3.0624    1.0000 </r>
       <r>    3.0624    1.0000 </r>
       <r>    3.4042    1.0000 </r>
       <r>    3.8130    1.0000 </r>
       <r>    4.0033    1.0000 </r>
       <r>    4.1198    1.0000 </r>
       <r>    7.5629    0.0000 </r>
       <r>    7.8555    0.0000 </r>
       <r>    8.5873    0.0000 </r>
       <r>    8.5873    0.0000 </r>
       <r>    9.4530    0.0000 </r>
       <r>    9.5384    0.0000 </r>
       <r>    9.5384    0.0000 </r>
       <r>    9.7221    0.0000 </r>
       <r>   10.3255    0.0000 </r>
      </set>
      <set comment="kpoint 41">
       <r>   -5.4276    1.0000 </r>
       <r>   -3.6663    1.0000 </r>
       <r>   -3.6663    1.0000 </r>
       <r>   -3.1708    1.0000 </r>
       <r>   -1.0259    1.0000 </r>
       <r>   -0.4688    1.0000 </r>
       <r>   -0.4688    1.0000 </r>
       <r>    1.8220    1.0000 </r>
       <r>    1.8886    1.0000 </r>
       <r>    2.2771    1.0000 </r>
       <r>    2.2771    1.0000 </r>
       <r>    3.3917    1.0000 </r>
       <r>    3.3917    1.0000 </r>
       <r>    3.4538    1.0000 </r>
       <r>    4.5701    1.0000 </r>
       <r>    5.0739    1.0000 </r>
       <r>    7.1596    0.0000 </r>
       <r>    7.3455    0.0000 </r>
       <r>    7.3455    0.0000 </r>
       <r>    7.8353    0.0000 </r>
       <r>    9.0244    0.0000 </r>
       <r>    9.3152    0.0000 </r>
       <r>    9.7746    0.0000 </r>
       <r>    9.7746    0.0000 </r>
       <r>   10.4266    0.0000 </r>
      </set>
      <set comment="kpoint 42">
       <r>   -5.1922    1.0000 </r>
       <r>   -4.1237    1.0000 </r>
       <r>   -3.5329    1.0000 </r>
       <r>   -3.1962    1.0000 </r>
       <r>   -1.0869    1.0000 </r>
       <r>   -0.7144    1.0000 </r>
       <r>   -0.0296    1.0000 </r>
       <r>    1.3655    1.0000 </r>
       <r>    1.8611    1.0000 </r>
       <r>    2.1888    1.0000 </r>
       <r>    2.7710    1.0000 </r>
       <r>    3.3857    1.0000 </r>
       <r>    3.5225    1.0000 </r>
       <r>    3.6452    1.0000 </r>
       <r>    4.1898    1.0000 </r>
       <r>    4.8457    1.0000 </r>
       <r>    7.5121    0.0000 </r>
       <r>    7.5970    0.0000 </r>
       <r>    7.9481    0.0000 </r>
       <r>    8.0073    0.0000 </r>
       <r>    8.9584    0.0000 </r>
       <r>    9.6211    0.0000 </r>
       <r>    9.9346    0.0000 </r>
       <r>   10.0957    0.0000 </r>
[...]
       <r>   -0.9919    1.0000 </r>
       <r>   -0.0809    1.0000 </r>
       <r>    3.2615    1.0000 </r>
       <r>    3.2615    1.0000 </r>
       <r>    3.2615    1.0000 </r>
       <r>    4.0566    1.0000 </r>
       <r>    4.0566    1.0000 </r>
       <r>    4.0566    1.0000 </r>
       <r>    4.6019    1.0000 </r>
       <r>    4.6019    1.0000 </r>
       <r>    7.2881    0.0000 </r>
       <r>    7.8239    0.0000 </r>
       <r>    7.8239    0.0000 </r>
       <r>    7.8239    0.0000 </r>
       <r>    9.1579    0.0000 </r>
       <r>    9.1579    0.0000 </r>
       <r>    9.3034    0.0000 </r>
       <r>    9.3034    0.0000 </r>
       <r>    9.3034    0.0000 </r>
      </set>
      <set comment="kpoint 54">
       <r>   -4.3661    1.0000 </r>
       <r>   -4.0881    1.0000 </r>
       <r>   -3.7534    1.0000 </r>
       <r>   -3.7534    1.0000 </r>
       <r>   -1.1461    1.0000 </r>
       <r>   -1.1461    1.0000 </r>
       <r>   -0.7816    1.0000 </r>
       <r>   -0.4722    1.0000 </r>
       <r>    3.4013    1.0000 </r>
       <r>    3.4013    1.0000 </r>
       <r>    3.9069    1.0000 </r>
       <r>    4.1587    1.0000 </r>
       <r>    4.1587    1.0000 </r>
       <r>    4.2318    1.0000 </r>
       <r>    4.4192    1.0000 </r>
       <r>    4.4215    1.0000 </r>
       <r>    7.4253    0.0000 </r>
       <r>    7.7442    0.0000 </r>
       <r>    7.9524    0.0000 </r>
       <r>    7.9524    0.0000 </r>
       <r>    8.9388    0.0000 </r>
       <r>    8.9388    0.0000 </r>
       <r>    8.9568    0.0000 </r>
       <r>    8.9973    0.0000 </r>
       <r>    9.2948    0.0000 </r>
      </set>
      <set comment="kpoint 55">
       <r>   -4.1592    1.0000 </r>
       <r>   -3.9448    1.0000 </r>
       <r>   -3.9448    1.0000 </r>
       <r>   -3.8246    1.0000 </r>
       <r>   -1.1753    1.0000 </r>
       <r>   -1.0458    1.0000 </r>
       <r>   -1.0458    1.0000 </r>
       <r>   -0.8121    1.0000 </r>
       <r>    3.7318    1.0000 </r>
       <r>    3.9151    1.0000 </r>
       <r>    3.9151    1.0000 </r>
       <r>    4.2344    1.0000 </r>
       <r>    4.3316    1.0000 </r>
       <r>    4.3597    1.0000 </r>
       <r>    4.3597    1.0000 </r>
       <r>    4.5311    1.0000 </r>
       <r>    7.3772    0.0000 </r>
       <r>    7.6470    0.0000 </r>
       <r>    7.6470    0.0000 </r>
       <r>    7.7153    0.0000 </r>
       <r>    8.9440    0.0000 </r>
       <r>    8.9440    0.0000 </r>
       <r>    9.0161    0.0000 </r>
       <r>    9.1042    0.0000 </r>
       <r>    9.1106    0.0000 </r>
      </set>
      <set comment="kpoint 56">
       <r>   -4.0153    1.0000 </r>
       <r>   -3.8954    1.0000 </r>
       <r>   -3.8954    1.0000 </r>
       <r>   -3.8954    1.0000 </r>
       <r>   -1.2093    1.0000 </r>
       <r>   -1.2093    1.0000 </r>
       <r>   -1.2093    1.0000 </r>
       <r>   -1.0804    1.0000 </r>
       <r>    4.2664    1.0000 </r>
       <r>    4.2664    1.0000 </r>
       <r>    4.2664    1.0000 </r>
       <r>    4.4128    1.0000 </r>
       <r>    4.4128    1.0000 </r>
       <r>    4.4128    1.0000 </r>
       <r>    4.4814    1.0000 </r>
       <r>    4.4814    1.0000 </r>
       <r>    7.1514    0.0000 </r>
       <r>    7.3351    0.0000 </r>
       <r>    7.3351    0.0000 </r>
       <r>    7.3351    0.0000 </r>
       <r>    8.9907    0.0000 </r>
       <r>    8.9907    0.0000 </r>
       <r>    8.9907    0.0000 </r>
       <r>    9.0474    0.0000 </r>
       <r>    9.0474    0.0000 </r>
      </set>
     </set>
    </set>
   </array>
  </eigenvalues>
  <separator name="orbital magnetization" >
   <v name="MAGDIPOLOUT">      0.00000000      0.00000000      0.00000000</v>
  </separator>
  <dos>
   <i name="efermi">      5.96502647 </i>
   <total>
    <array>
     <dimension dim="1">gridpoints</dimension>
     <dimension dim="2">spin</dimension>
     <field>energy</field>
     <field>total</field>
     <field>integrated</field>
     <set>
      <set comment="spin 1">
       <r>    -7.1918     0.0000     0.0000 </r>
       <r>    -7.1281     0.0000     0.0000 </r>
       <r>    -7.0643     0.0000     0.0000 </r>
       <r>    -7.0006     0.0000     0.0000 </r>
       <r>    -6.9368     0.0000     0.0000 </r>
       <r>    -6.8731     0.0000     0.0000 </r>
       <r>    -6.8094     0.0000     0.0000 </r>
       <r>    -6.7456     0.0000     0.0000 </r>
       <r>    -6.6819     0.0000     0.0000 </r>
       <r>    -6.6181     0.0000     0.0000 </r>
       <r>    -6.5544     0.0000     0.0000 </r>
       <r>    -6.4906     0.0000     0.0000 </r>
       <r>    -6.4269     0.0000     0.0000 </r>
       <r>    -6.3632     0.0005     0.0000 </r>
       <r>    -6.2994     0.0059     0.0004 </r>
       <r>    -6.2357     0.0374     0.0028 </r>
       <r>    -6.1719     0.1311     0.0112 </r>
       <r>    -6.1082     0.2853     0.0293 </r>
       <r>    -6.0444     0.4549     0.0583 </r>
       <r>    -5.9807     0.5893     0.0959 </r>
       <r>    -5.9170     0.6757     0.1390 </r>
       <r>    -5.8532     0.7918     0.1894 </r>
       <r>    -5.7895     0.8969     0.2466 </r>
       <r>    -5.7257     0.9432     0.3067 </r>
       <r>    -5.6620     0.9688     0.3685 </r>
       <r>    -5.5982     1.0641     0.4363 </r>
       <r>    -5.5345     1.2350     0.5150 </r>
       <r>    -5.4708     1.2863     0.5970 </r>
       <r>    -5.4070     1.1910     0.6729 </r>
       <r>    -5.3433     1.1957     0.7492 </r>
       <r>    -5.2795     1.4383     0.8408 </r>
       <r>    -5.2158     1.6105     0.9435 </r>
       <r>    -5.1520     1.5665     1.0434 </r>
       <r>    -5.0883     1.4805     1.1377 </r>
       <r>    -5.0246     1.5585     1.2371 </r>
       <r>    -4.9608     1.6572     1.3427 </r>
       <r>    -4.8971     1.6698     1.4491 </r>
       <r>    -4.8333     1.8133     1.5647 </r>
       <r>    -4.7696     2.0668     1.6965 </r>
       <r>    -4.7059     2.0890     1.8296 </r>
       <r>    -4.6421     1.8961     1.9505 </r>
       <r>    -4.5784     1.7789     2.0639 </r>
       <r>    -4.5146     1.8677     2.1829 </r>
       <r>    -4.4509     2.1946     2.3228 </r>
       <r>    -4.3871     2.5834     2.4875 </r>
       <r>    -4.3234     2.5857     2.6523 </r>
       <r>    -4.2597     2.3133     2.7998 </r>
       <r>    -4.1959     2.3745     2.9511 </r>
       <r>    -4.1322     2.6224     3.1183 </r>
       <r>    -4.0684     2.6646     3.2881 </r>
       <r>    -4.0047     2.7611     3.4641 </r>
       <r>    -3.9409     3.0266     3.6571 </r>
       <r>    -3.8772     3.3419     3.8701 </r>
       <r>    -3.8135     3.8097     4.1129 </r>
       <r>    -3.7497     4.0500     4.3711 </r>
       <r>    -3.6860     3.4710     4.5923 </r>
       <r>    -3.6222     2.7779     4.7694 </r>
       <r>    -3.5585     3.0216     4.9620 </r>
       <r>    -3.4947     3.3700     5.1768 </r>
       <r>    -3.4310     2.9372     5.3640 </r>
       <r>    -3.3673     2.6381     5.5322 </r>
       <r>    -3.3035     2.8052     5.7110 </r>
       <r>    -3.2398     3.0654     5.9064 </r>
       <r>    -3.1760     3.3561     6.1203 </r>
       <r>    -3.1123     3.2129     6.3251 </r>
       <r>    -3.0486     2.5303     6.4864 </r>
       <r>    -2.9848     1.8252     6.6028 </r>
       <r>    -2.9211     1.5263     6.7000 </r>
       <r>    -2.8573     1.5625     6.7996 </r>
       <r>    -2.7936     1.9509     6.9240 </r>
       <r>    -2.7298     2.6388     7.0922 </r>
       <r>    -2.6661     2.9131     7.2779 </r>
       <r>    -2.6024     2.5061     7.4376 </r>
       <r>    -2.5386     1.9061     7.5591 </r>
       <r>    -2.4749     1.2899     7.6413 </r>
       <r>    -2.4111     0.8482     7.6954 </r>
       <r>    -2.3474     0.6964     7.7398 </r>
       <r>    -2.2836     0.7106     7.7851 </r>
       <r>    -2.2199     0.7897     7.8354 </r>
       <r>    -2.1562     0.8603     7.8903 </r>
       <r>    -2.0924     0.9474     7.9507 </r>
       <r>    -2.0287     1.0536     8.0178 </r>
       <r>    -1.9649     1.0359     8.0839 </r>
       <r>    -1.9012     0.8060     8.1352 </r>
       <r>    -1.8374     0.5590     8.1709 </r>
       <r>    -1.7737     0.4572     8.2000 </r>
       <r>    -1.7100     0.4545     8.2290 </r>
       <r>    -1.6462     0.5170     8.2619 </r>
       <r>    -1.5825     0.6058     8.3005 </r>
       <r>    -1.5187     0.9844     8.3633 </r>
       <r>    -1.4550     2.2112     8.5042 </r>
       <r>    -1.3912     3.5888     8.7330 </r>
       <r>    -1.3275     3.4732     8.9544 </r>
       <r>    -1.2638     2.5329     9.1158 </r>
       <r>    -1.2000     2.5070     9.2756 </r>
       <r>    -1.1363     3.6018     9.5052 </r>
       <r>    -1.0725     4.9416     9.8202 </r>
       <r>    -1.0088     5.4740    10.1691 </r>
       <r>    -0.9451     5.2192    10.5018 </r>
       <r>    -0.8813     4.3913    10.7817 </r>
       <r>    -0.8176     3.5526    11.0082 </r>
       <r>    -0.7538     3.8421    11.2531 </r>
       <r>    -0.6901     4.3172    11.5283 </r>
       <r>    -0.6263     3.3617    11.7426 </r>
       <r>    -0.5626     1.9069    11.8641 </r>
       <r>    -0.4989     1.6639    11.9702 </r>
       <r>    -0.4351     2.4127    12.1240 </r>
       <r>    -0.3714     2.8796    12.3075 </r>
       <r>    -0.3076     2.4027    12.4607 </r>
       <r>    -0.2439     1.6707    12.5672 </r>
       <r>    -0.1801     1.3032    12.6502 </r>
       <r>    -0.1164     1.4893    12.7452 </r>
       <r>    -0.0527     2.4483    12.9012 </r>
       <r>     0.0111     3.0808    13.0976 </r>
       <r>     0.0748     2.3993    13.2505 </r>
       <r>     0.1386     1.3214    13.3348 </r>
       <r>     0.2023     0.7806    13.3845 </r>
       <r>     0.2661     0.8391    13.4380 </r>
       <r>     0.3298     1.3423    13.5236 </r>
       <r>     0.3935     2.0159    13.6521 </r>
       <r>     0.4573     2.0447    13.7824 </r>
       <r>     0.5210     1.3414    13.8679 </r>
       <r>     0.5848     0.9286    13.9271 </r>
       <r>     0.6485     0.8190    13.9793 </r>
       <r>     0.7123     0.7535    14.0273 </r>
       <r>     0.7760     1.1209    14.0988 </r>
       <r>     0.8397     1.8570    14.2171 </r>
       <r>     0.9035     1.9819    14.3435 </r>
       <r>     0.9672     1.2547    14.4235 </r>
       <r>     1.0310     0.6104    14.4624 </r>
       <r>     1.0947     0.4305    14.4898 </r>
       <r>     1.1584     0.4959    14.5214 </r>
       <r>     1.2222     0.6711    14.5642 </r>
       <r>     1.2859     1.1491    14.6374 </r>
       <r>     1.3497     2.0087    14.7655 </r>
       <r>     1.4134     2.5990    14.9312 </r>
       <r>     1.4772     2.9943    15.1220 </r>
       <r>     1.5409     3.7185    15.3590 </r>
       <r>     1.6046     4.2901    15.6325 </r>
       <r>     1.6684     4.2381    15.9027 </r>
       <r>     1.7321     4.0748    16.1624 </r>
       <r>     1.7959     4.5720    16.4538 </r>
       <r>     1.8596     5.2699    16.7897 </r>
       <r>     1.9234     5.1245    17.1164 </r>
       <r>     1.9871     4.3162    17.3915 </r>
       <r>     2.0508     3.5995    17.6209 </r>
       <r>     2.1146     3.3229    17.8328 </r>
       <r>     2.1783     3.7593    18.0724 </r>
       <r>     2.2421     4.4298    18.3547 </r>
       <r>     2.3058     4.6053    18.6483 </r>
       <r>     2.3696     4.5776    18.9401 </r>
       <r>     2.4333     4.7525    19.2430 </r>
       <r>     2.4970     4.7486    19.5457 </r>
       <r>     2.5608     4.6071    19.8394 </r>
       <r>     2.6245     4.4412    20.1225 </r>
       <r>     2.6883     4.3344    20.3988 </r>
       <r>     2.7520     4.8345    20.7069 </r>
       <r>     2.8157     5.6969    21.0701 </r>
       <r>     2.8795     6.2886    21.4709 </r>
       <r>     2.9432     6.3996    21.8788 </r>
       <r>     3.0070     6.1752    22.2724 </r>
       <r>     3.0707     6.0923    22.6608 </r>
       <r>     3.1345     6.0009    23.0433 </r>
       <r>     3.1982     5.6054    23.4006 </r>
       <r>     3.2619     5.2028    23.7322 </r>
       <r>     3.3257     5.3809    24.0752 </r>
       <r>     3.3894     6.2346    24.4726 </r>
       <r>     3.4532     6.6126    24.8941 </r>
       <r>     3.5169     5.7478    25.2605 </r>
       <r>     3.5807     4.6448    25.5566 </r>
       <r>     3.6444     4.5365    25.8458 </r>
       <r>     3.7081     5.2756    26.1820 </r>
       <r>     3.7719     5.7869    26.5509 </r>
       <r>     3.8356     5.7551    26.9178 </r>
       <r>     3.8994     5.2553    27.2527 </r>
       <r>     3.9631     4.7867    27.5579 </r>
       <r>     4.0269     4.5846    27.8501 </r>
       <r>     4.0906     4.3911    28.1300 </r>
       <r>     4.1543     4.7931    28.4355 </r>
       <r>     4.2181     5.5591    28.7899 </r>
       <r>     4.2818     5.4370    29.1364 </r>
       <r>     4.3456     4.4781    29.4219 </r>
       <r>     4.4093     3.6997    29.6577 </r>
       <r>     4.4731     3.6052    29.8875 </r>
       <r>     4.5368     4.0891    30.1482 </r>
       <r>     4.6005     4.2304    30.4178 </r>
       <r>     4.6643     3.3713    30.6327 </r>
       <r>     4.7280     2.4099    30.7863 </r>
       <r>     4.7918     2.0903    30.9196 </r>
       <r>     4.8555     2.0701    31.0515 </r>
       <r>     4.9192     2.0147    31.1799 </r>
       <r>     4.9830     2.0824    31.3127 </r>
       <r>     5.0467     1.9806    31.4389 </r>
       <r>     5.1105     1.5121    31.5353 </r>
       <r>     5.1742     1.2473    31.6148 </r>
       <r>     5.2380     1.2060    31.6917 </r>
       <r>     5.3017     1.0455    31.7583 </r>
       <r>     5.3654     0.9354    31.8179 </r>
       <r>     5.4292     0.9294    31.8772 </r>
       <r>     5.4929     0.8027    31.9284 </r>
       <r>     5.5567     0.5471    31.9632 </r>
       <r>     5.6204     0.3139    31.9832 </r>
       <r>     5.6842     0.1689    31.9940 </r>
       <r>     5.7479     0.0728    31.9987 </r>
       <r>     5.8116     0.0186    31.9998 </r>
       <r>     5.8754     0.0024    32.0000 </r>
       <r>     5.9391     0.0002    32.0000 </r>
       <r>     6.0029     0.0000    32.0000 </r>
       <r>     6.0666     0.0003    32.0000 </r>
       <r>     6.1304     0.0039    32.0003 </r>
       <r>     6.1941     0.0258    32.0019 </r>
       <r>     6.2578     0.0864    32.0074 </r>
       <r>     6.3216     0.1646    32.0179 </r>
       <r>     6.3853     0.2805    32.0358 </r>
       <r>     6.4491     0.6152    32.0750 </r>
       <r>     6.5128     1.0922    32.1446 </r>
       <r>     6.5765     1.2737    32.2258 </r>
       <r>     6.6403     1.2404    32.3049 </r>
       <r>     6.7040     1.3677    32.3921 </r>
       <r>     6.7678     1.5919    32.4935 </r>
       <r>     6.8315     1.6964    32.6017 </r>
       <r>     6.8953     1.6065    32.7041 </r>
       <r>     6.9590     1.7355    32.8147 </r>
       <r>     7.0227     2.4237    32.9692 </r>
       <r>     7.0865     2.9062    33.1544 </r>
       <r>     7.1502     2.7932    33.3325 </r>
       <r>     7.2140     2.4960    33.4916 </r>
       <r>     7.2777     2.5405    33.6535 </r>
       <r>     7.3415     3.2681    33.8618 </r>
       <r>     7.4052     3.8785    34.1091 </r>
       <r>     7.4689     3.7754    34.3497 </r>
       <r>     7.5327     3.5528    34.5762 </r>
       <r>     7.5964     3.8053    34.8187 </r>
       <r>     7.6602     4.2922    35.0923 </r>
       <r>     7.7239     4.8123    35.3991 </r>
       <r>     7.7877     5.6410    35.7587 </r>
       <r>     7.8514     6.3599    36.1641 </r>
       <r>     7.9151     6.6343    36.5869 </r>
       <r>     7.9789     6.9045    37.0270 </r>
       <r>     8.0426     6.8121    37.4613 </r>
       <r>     8.1064     5.8522    37.8343 </r>
       <r>     8.1701     5.1531    38.1628 </r>
       <r>     8.2339     5.4709    38.5115 </r>
       <r>     8.2976     5.7896    38.8805 </r>
       <r>     8.3613     5.0889    39.2049 </r>
       <r>     8.4251     4.1997    39.4726 </r>
       <r>     8.4888     4.2422    39.7430 </r>
       <r>     8.5526     4.6538    40.0397 </r>
       <r>     8.6163     4.8365    40.3480 </r>
       <r>     8.6800     4.8900    40.6597 </r>
       <r>     8.7438     4.7767    40.9641 </r>
       <r>     8.8075     4.4824    41.2499 </r>
       <r>     8.8713     5.0145    41.5695 </r>
       <r>     8.9350     7.0222    42.0171 </r>
       <r>     8.9988     8.8486    42.5811 </r>
       <r>     9.0625     8.6590    43.1331 </r>
       <r>     9.1262     7.2268    43.5937 </r>
       <r>     9.1900     6.2008    43.9890 </r>
       <r>     9.2537     5.9392    44.3676 </r>
       <r>     9.3175     6.2959    44.7689 </r>
       <r>     9.3812     6.8247    45.2039 </r>
       <r>     9.4450     6.9860    45.6492 </r>
       <r>     9.5087     6.5350    46.0658 </r>
       <r>     9.5724     5.6484    46.4258 </r>
       <r>     9.6362     5.0375    46.7469 </r>
       <r>     9.6999     4.9033    47.0595 </r>
       <r>     9.7637     4.6158    47.3537 </r>
       <r>     9.8274     4.1124    47.6158 </r>
       <r>     9.8912     3.6092    47.8459 </r>
       <r>     9.9549     3.4898    48.0683 </r>
       <r>    10.0186     3.7624    48.3081 </r>
       <r>    10.0824     3.9229    48.5582 </r>
       <r>    10.1461     3.7235    48.7955 </r>
       <r>    10.2099     3.4159    49.0133 </r>
       <r>    10.2736     3.4784    49.2350 </r>
       <r>    10.3373     3.5613    49.4620 </r>
       <r>    10.4011     2.8442    49.6433 </r>
       <r>    10.4648     1.8367    49.7604 </r>
       <r>    10.5286     1.1680    49.8348 </r>
       <r>    10.5923     0.7984    49.8857 </r>
       <r>    10.6561     0.6006    49.9240 </r>
       <r>    10.7198     0.4295    49.9514 </r>
       <r>    10.7835     0.2818    49.9693 </r>
       <r>    10.8473     0.1927    49.9816 </r>
       <r>    10.9110     0.1467    49.9910 </r>
       <r>    10.9748     0.0932    49.9969 </r>
       <r>    11.0385     0.0384    49.9994 </r>
       <r>    11.1023     0.0089    49.9999 </r>
       <r>    11.1660     0.0011    50.0000 </r>
       <r>    11.2297     0.0001    50.0000 </r>
       <r>    11.2935     0.0000    50.0000 </r>
       <r>    11.3572     0.0000    50.0000 </r>
       <r>    11.4210     0.0000    50.0000 </r>
       <r>    11.4847     0.0000    50.0000 </r>
       <r>    11.5485     0.0000    50.0000 </r>
       <r>    11.6122     0.0000    50.0000 </r>
       <r>    11.6759     0.0000    50.0000 </r>
       <r>    11.7397     0.0000    50.0000 </r>
       <r>    11.8034     0.0000    50.0000 </r>
       <r>    11.8672     0.0000    50.0000 </r>
       <r>    11.9309     0.0000    50.0000 </r>
      </set>
     </set>
    </array>
   </total>
  </dos>
 </calculation>
 <structure name="finalpos" >
  <crystal>
   <varray name="basis" >
    <v>       5.46498243      -0.00000000      -0.00000000 </v>
    <v>      -0.00000000       5.46498243       0.00000000 </v>
    <v>      -0.00000000       0.00000000       5.46498243 </v>
   </varray>
   <i name="volume">    163.21734504 </i>
   <varray name="rec_basis" >
    <v>       0.18298321       0.00000000       0.00000000 </v>
    <v>       0.00000000       0.18298321      -0.00000000 </v>
    <v>       0.00000000      -0.00000000       0.18298321 </v>
   </varray>
  </crystal>
  <varray name="positions" >
   <v>       0.00000000       0.00000000       0.00000000 </v>
   <v>       0.00000000       0.50000000       0.50000000 </v>
   <v>       0.50000000       0.00000000       0.50000000 </v>
   <v>       0.50000000       0.50000000       0.00000000 </v>
   <v>       0.25000000       0.25000000       0.25000000 </v>
   <v>       0.75000000       0.75000000       0.25000000 </v>
   <v>       0.75000000       0.25000000       0.75000000 </v>
   <v>       0.25000000       0.75000000       0.75000000 </v>
  </varray>
 </structure>
</modeling>
